# vtk DataFile Version 3.0 
airfoil.vtk
ASCII
DATASET UNSTRUCTURED_GRID
POINTS         3200 double
0.5 0.0 0.0
0.49813567635 1.4622807076e-05 0.0
0.49256242082 0.00011620630276 0.0
0.48333889136 0.00038787415751 0.0
0.47056125044 0.00090527665137 0.0
0.45436085652 0.0017333401416 0.0
0.43490120827 0.0029235584197 0.0
0.41237429867 0.0045119424084 0.0
0.38699655606 0.0065176988099 0.0
0.35900455529 0.0089426608204 0.0
0.3286506753 0.011771449181 0.0
0.29619886082 0.014972303193 0.0
0.26192062017 0.018498491335 0.0
0.22609135975 0.022290190985 0.0
0.18898712346 0.026276716525 0.0
0.15088177428 0.030378973925 0.0
0.11204462728 0.034512026168 0.0
0.072738520471 0.038587665681 0.0
0.033218292595 0.042516905396 0.0
-0.0062703751481 0.046212317196 0.0
-0.045491803279 0.049590163934 0.0
-0.084220896461 0.05257228766 0.0
-0.12224351563 0.055087731419 0.0
-0.15935668786 0.057074084514 0.0
-0.19536869673 0.058478551282 0.0
-0.23009909023 0.059258751259 0.0
-0.26337863627 0.059383264318 0.0
-0.29504925009 0.058831938183 0.0
-0.32496391185 0.057595977997 0.0
-0.35298658704 0.055677838699 0.0
-0.3789921587 0.053090941054 0.0
-0.40286637572 0.049859231674 0.0
-0.42450581946 0.046016606344 0.0
-0.44381788798 0.041606214732 0.0
-0.46072079596 0.036679663188 0.0
-0.47514358722 0.031296130927 0.0
-0.48702615597 0.025521413581 0.0
-0.49631927316 0.019426906852 0.0
-0.50298461387 0.013088541932 0.0
-0.5069947826 0.0065856834591 0.0
-0.50833333333 7.4631658878e-18 0.0
-0.5069947826 -0.0065856834591 0.0
-0.50298461387 -0.013088541932 0.0
-0.49631927316 -0.019426906852 0.0
-0.48702615597 -0.025521413581 0.0
-0.47514358722 -0.031296130927 0.0
-0.46072079596 -0.036679663188 0.0
-0.44381788798 -0.041606214732 0.0
-0.42450581946 -0.046016606344 0.0
-0.40286637572 -0.049859231674 0.0
-0.3789921587 -0.053090941054 0.0
-0.35298658704 -0.055677838699 0.0
-0.32496391185 -0.057595977997 0.0
-0.29504925009 -0.058831938183 0.0
-0.26337863627 -0.059383264318 0.0
-0.23009909023 -0.059258751259 0.0
-0.19536869673 -0.058478551282 0.0
-0.15935668786 -0.057074084514 0.0
-0.12224351563 -0.055087731419 0.0
-0.084220896461 -0.05257228766 0.0
-0.045491803279 -0.049590163934 0.0
-0.0062703751481 -0.046212317196 0.0
0.033218292595 -0.042516905396 0.0
0.072738520471 -0.038587665681 0.0
0.11204462728 -0.034512026168 0.0
0.15088177428 -0.030378973925 0.0
0.18898712346 -0.026276716525 0.0
0.22609135975 -0.022290190985 0.0
0.26192062017 -0.018498491335 0.0
0.29619886082 -0.014972303193 0.0
0.3286506753 -0.011771449181 0.0
0.35900455529 -0.0089426608204 0.0
0.38699655606 -0.0065176988099 0.0
0.41237429867 -0.0045119424084 0.0
0.43490120827 -0.0029235584197 0.0
0.45436085652 -0.0017333401416 0.0
0.47056125044 -0.00090527665137 0.0
0.48333889136 -0.00038787415751 0.0
0.49256242082 -0.00011620630276 0.0
0.49813567635 -1.4622807076e-05 0.0
0.50017135964 0.0 0.0
0.49831942518 0.0011410251367 0.0
0.49278277215 0.0023572457333 0.0
0.4836183928 0.003720306132 0.0
0.47091976994 0.00529493343 0.0
0.45481470525 0.0071359273209 0.0
0.43546244078 0.0092856504326 0.0
0.41305021787 0.011772127677 0.0
0.38778943697 0.01460782132 0.0
0.35991158788 0.017789105006 0.0
0.32966411432 0.021296418692 0.0
0.29730636052 0.025095050626 0.0
0.2631057243 0.029136464434 0.0
0.2273341127 0.033360070132 0.0
0.19026476679 0.037695327731 0.0
0.15216949346 0.042064070216 0.0
0.11331631618 0.046382937733 0.0
0.073967535126 0.05056582514 0.0
0.034378170487 0.054526258903 0.0
-0.005205248912 0.058179634905 0.0
-0.044545596523 0.061445264788 0.0
-0.08341580627 0.064248193737 0.0
-0.12159932546 0.066520766463 0.0
-0.15889040704 0.068203930035 0.0
-0.19509428137 0.069248271987 0.0
-0.23002724237 0.069614799753 0.0
-0.26351667685 0.06927547314 0.0
-0.29540106031 0.06821350546 0.0
-0.32552993686 0.066423451371 0.0
-0.35376389599 0.06391110072 0.0
-0.37997455484 0.060693198061 0.0
-0.40404455084 0.056797007147 0.0
-0.425867547 0.05225973897 0.0
-0.44534824955 0.04712786084 0.0
-0.46240243661 0.041456302802 0.0
-0.47695699489 0.035307576446 0.0
-0.48894996124 0.028750819967 0.0
-0.49833056543 0.021860782196 0.0
-0.50505927076 0.014716757341 0.0
-0.50910780918 0.0074014813383 0.0
-0.51045920844 9.3868055415e-18 0.0
-0.50910780918 -0.0074014813383 0.0
-0.50505927076 -0.014716757341 0.0
-0.49833056543 -0.021860782196 0.0
-0.48894996124 -0.028750819967 0.0
-0.47695699489 -0.035307576446 0.0
-0.46240243661 -0.041456302802 0.0
-0.44534824955 -0.04712786084 0.0
-0.425867547 -0.05225973897 0.0
-0.40404455084 -0.056797007147 0.0
-0.37997455484 -0.060693198061 0.0
-0.35376389599 -0.06391110072 0.0
-0.32552993686 -0.066423451371 0.0
-0.29540106031 -0.06821350546 0.0
-0.26351667685 -0.06927547314 0.0
-0.23002724237 -0.069614799753 0.0
-0.19509428137 -0.069248271987 0.0
-0.15889040704 -0.068203930035 0.0
-0.12159932546 -0.066520766463 0.0
-0.08341580627 -0.064248193737 0.0
-0.044545596523 -0.061445264788 0.0
-0.005205248912 -0.058179634905 0.0
0.034378170487 -0.054526258903 0.0
0.073967535126 -0.05056582514 0.0
0.11331631618 -0.046382937733 0.0
0.15216949346 -0.042064070216 0.0
0.19026476679 -0.037695327731 0.0
0.2273341127 -0.033360070132 0.0
0.2631057243 -0.029136464434 0.0
0.29730636052 -0.025095050626 0.0
0.32966411432 -0.021296418692 0.0
0.35991158788 -0.017789105006 0.0
0.38778943697 -0.01460782132 0.0
0.41305021787 -0.011772127677 0.0
0.43546244078 -0.0092856504326 0.0
0.45481470525 -0.0071359273209 0.0
0.47091976994 -0.00529493343 0.0
0.4836183928 -0.003720306132 0.0
0.49278277215 -0.0023572457333 0.0
0.49831942518 -0.0011410251367 0.0
0.50087132336 0.0 0.0
0.49903247112 0.0025482560964 0.0
0.49353441385 0.005157370789 0.0
0.48443222506 0.0078849870228 0.0
0.47181630039 0.01078248357 0.0
0.45581034341 0.013892248367 0.0
0.43656869111 0.017245404995 0.0
0.41427310916 0.020860091583 0.0
0.38912920475 0.024740354177 0.0
0.36136261103 0.028875677619 0.0
0.33121509277 0.033241139858 0.0
0.29894070934 0.037798142988 0.0
0.2648021505 0.042495648471 0.0
0.2290673358 0.047271825969 0.0
0.19200634192 0.052056015116 0.0
0.15388869604 0.056770897067 0.0
0.11498105022 0.061334776359 0.0
0.07554523146 0.065663882329 0.0
0.035836646575 0.069674611304 0.0
-0.0038969901054 0.073285644645 0.0
-0.043416645381 0.076419892129 0.0
-0.08249271451 0.079006224146 0.0
-0.12090556992 0.080980968926 0.0
-0.15844595187 0.082289162207 0.0
-0.19491523812 0.082885545957 0.0
-0.23012562471 0.082735320198 0.0
-0.26390024515 0.081814657512 0.0
-0.29607324996 0.080110993784 0.0
-0.32648986332 0.077623111347 0.0
-0.35500642964 0.074361032126 0.0
-0.38149045819 0.070345738994 0.0
-0.40582067119 0.065608743491 0.0
-0.4278870577 0.0601915175 0.0
-0.44759093367 0.054144805699 0.0
-0.46484500698 0.047527834562 0.0
-0.47957344508 0.04040743267 0.0
-0.49171194247 0.032857075999 0.0
-0.50120778472 0.024955870899 0.0
-0.50801990599 0.016787486557 0.0
-0.51211893696 0.0084390479908 0.0
-0.51348724109 1.2140641168e-17 0.0
-0.51211893696 -0.0084390479908 0.0
-0.50801990599 -0.016787486557 0.0
-0.50120778472 -0.024955870899 0.0
-0.49171194247 -0.032857075999 0.0
-0.47957344508 -0.04040743267 0.0
-0.46484500698 -0.047527834562 0.0
-0.44759093367 -0.054144805699 0.0
-0.4278870577 -0.0601915175 0.0
-0.40582067119 -0.065608743491 0.0
-0.38149045819 -0.070345738994 0.0
-0.35500642964 -0.074361032126 0.0
-0.32648986332 -0.077623111347 0.0
-0.29607324996 -0.080110993784 0.0
-0.26390024515 -0.081814657512 0.0
-0.23012562471 -0.082735320198 0.0
-0.19491523812 -0.082885545957 0.0
-0.15844595187 -0.082289162207 0.0
-0.12090556992 -0.080980968926 0.0
-0.08249271451 -0.079006224146 0.0
-0.043416645381 -0.076419892129 0.0
-0.0038969901054 -0.073285644645 0.0
0.035836646575 -0.069674611304 0.0
0.07554523146 -0.065663882329 0.0
0.11498105022 -0.061334776359 0.0
0.15388869604 -0.056770897067 0.0
0.19200634192 -0.052056015116 0.0
0.2290673358 -0.047271825969 0.0
0.2648021505 -0.042495648471 0.0
0.29894070934 -0.037798142988 0.0
0.33121509277 -0.033241139858 0.0
0.36136261103 -0.028875677619 0.0
0.38912920475 -0.024740354177 0.0
0.41427310916 -0.020860091583 0.0
0.43656869111 -0.017245404995 0.0
0.45581034341 -0.013892248367 0.0
0.47181630039 -0.01078248357 0.0
0.48443222506 -0.0078849870228 0.0
0.49353441385 -0.005157370789 0.0
0.49903247112 -0.0025482560964 0.0
0.50249899596 0.0 0.0
0.50067270419 0.0042941903284 0.0
0.49521160189 0.0086319826563 0.0
0.48616862126 0.013054148294 0.0
0.47363071262 0.01759594453 0.0
0.45771700605 0.022284715339 0.0
0.43857636522 0.027137892621 0.0
0.41638444766 0.032161486801 0.0
0.3913404023 0.037349123298 0.0
0.36366334085 0.04268164739 0.0
0.33358871692 0.048127287309 0.0
0.30136473571 0.053642336487 0.0
0.26724889963 0.059172292559 0.0
0.23150477426 0.0646533741 0.0
0.19439903587 0.070014326292 0.0
0.15619883884 0.075178423574 0.0
0.11716952064 0.080065579724 0.0
0.077572643492 0.084594482764 0.0
0.037664357902 0.088684682092 0.0
-0.0023059378522 0.092258567182 0.0
-0.042096674801 0.095243189773 0.0
-0.081474963287 0.09757189396 0.0
-0.12021725308 0.099185730101 0.0
-0.15810983951 0.10003463871 0.0
-0.19494924874 0.10007839916 0.0
-0.23054253142 0.099287345059 0.0
-0.26470748963 0.097642853494 0.0
-0.29727285746 0.095137619549 0.0
-0.32807845127 0.09177572996 0.0
-0.35697530144 0.087572551664 0.0
-0.38382577409 0.082554451769 0.0
-0.40850368784 0.076758365689 0.0
-0.43089442846 0.070231229949 0.0
-0.45089506203 0.063029295615 0.0
-0.46841444598 0.05521733752 0.0
-0.48337333596 0.046867773642 0.0
-0.49570448637 0.038059708094 0.0
-0.50535274156 0.028877910365 0.0
-0.51227511502 0.019411742676 0.0
-0.51644085395 0.0097540466561 0.0
-0.51783148705 1.6119948917e-17 0.0
-0.51644085395 -0.0097540466561 0.0
-0.51227511502 -0.019411742676 0.0
-0.50535274156 -0.028877910365 0.0
-0.49570448637 -0.038059708094 0.0
-0.48337333596 -0.046867773642 0.0
-0.46841444598 -0.05521733752 0.0
-0.45089506203 -0.063029295615 0.0
-0.43089442846 -0.070231229949 0.0
-0.40850368784 -0.076758365689 0.0
-0.38382577409 -0.082554451769 0.0
[...]
POINT_DATA  3200
FIELD  FlowField  4
Density    1 3200  double
1.0585253444848326
1.047280667128275
1.0480355938042965
1.0471971535155773
1.0452585752207995
1.0422971027306809
1.038408601683722
1.0337166969959557
1.0284118176951664
1.0227364694415577
1.0169108742086892
1.011103268187906
1.0052062153550745
0.9998547003888445
0.990964732413343
0.9865358285208009
0.8516253531072662
0.6369780211627105
0.5683682464479756
0.5751112285034163
0.5760698443167578
0.5818598066829497
0.588116974253831
0.5961890666322367
0.605799950356776
0.6170949715062946
0.6301485265129101
0.6450879078439897
0.66208507598406
0.6813978105600489
0.7033908177286694
0.7285911055806806
0.7577729119479767
0.7918865266558812
0.8324690311701012
0.8847190242959339
0.9580553213010834
1.0487914461953993
1.1384899673595898
1.2210566897322241
1.2753514727117499
1.2528474608479274
1.185981327506744
1.1179196361751333
1.0391057033127717
0.9692459548761688
0.9184787812624702
0.8775426354058888
0.8424081830918078
0.812099936405015
0.7858676092202583
0.7630168032515413
0.743054614398551
0.7256260550427731
0.7104835313144082
0.6974742773199254
0.6865939153483187
0.6772846246356956
0.6724341611812237
0.6613475759811127
0.7920042568534025
0.9807737246699366
1.0117247780213232
0.9970820903153665
0.9992719475651941
1.0020275694476948
1.007529801852073
1.0138433031676248
1.020397600526886
1.0270889239891423
1.033936320602427
1.0409007505394796
1.0477797063568868
1.0541756381751892
1.059607676858052
1.063713823085021
1.0664084750051352
1.0678655698847408
1.0687645391669274
1.069936332032791
1.057831812768596
1.0471822809991207
1.0478050237293943
1.0471806708769353
1.0455190922710813
1.0428956717720541
1.03939571951393
1.0351269905983513
1.0302650406977658
1.0250378447344208
1.019657061362117
1.0142889844340617
1.0088364579259246
1.003789413740895
0.9955019427668181
0.9922596926952857
0.8565141442402046
0.6401766458368132
0.5715598154863848
0.5791482472822951
0.5808119241131429
0.5869599459713721
0.5937795876859063
0.6023851610478121
0.6125790165996297
0.624497139341126
0.6382290461818622
0.6539184555479105
0.671763931575959
0.692051774483996
0.7151835738209373
0.7417365772948761
0.7725453422632567
0.8086728614323475
0.8518568914068418
0.9070090680288646
0.9814371595194222
1.0708794156686217
1.1569145679280735
1.2323976386279918
1.2824542562636143
1.262014420726551
1.2004639052019375
1.136581586704069
1.0592482002199812
0.9890376113324952
0.9360638886483095
0.8930359998677522
0.8562094384431831
0.8244921665140365
0.7970551543229498
0.773169764055162
0.752310957036335
0.7340969783753217
0.7182557334384804
0.7046197549582326
0.6931376082026445
0.6834025420562732
0.6776586071955735
0.66570816511986
0.7954574866514886
0.9846430330240475
1.016665578245752
1.001185076819709
1.002714859101832
1.0053305107574244
1.0105098522847484
1.0164873044414506
1.0226866939812544
1.0289954252798776
1.035448856993677
1.0420299410849034
1.0485562990750403
1.0546479719292527
1.0598335427562688
1.0637473880477188
1.0662872833784187
1.0676304841083166
1.0683249798018646
1.0688797274829966
1.0563510494203678
1.0470876057093217
1.047511506010063
1.0474813264244558
1.0465644258761315
1.0447663957646127
1.0421208751511972
1.0386896971509647
1.0346139005341464
1.0300968411767473
1.0253417959277056
1.020525691998638
1.0155537077308106
1.010857348531873
1.003261448955958
1.0026622606273918
0.8648278895055355
0.6444477802873712
0.5770094096594898
0.5863873774759442
0.5890564254644632
0.5959813623288984
0.6037794116978041
0.6133620899419605
0.6246022620223798
0.6376346180138766
0.6525713045883702
0.6695856877302925
0.6889200796263374
0.7109071909111981
0.7360135128180996
0.764904348603986
0.7985213563447431
0.8381273379357455
0.8856930677130278
0.9451047927320329
1.0202380324503484
1.1053604171214644
1.1840280167538526
1.2483874684056964
1.2900018414039942
1.2730366445022254
1.2205738957009962
1.1633414233570543
1.0908212471200809
1.021735997802865
0.9657972364528035
0.9194786855206559
0.8799271721700556
0.8459167131393766
0.8164944318988601
0.7908877391575664
0.7685255586455442
0.7489846375536684
0.7319539832474035
0.717237508190608
0.7047395007383235
0.694156287118051
0.6869861125081534
0.6733827015115157
0.8021947677932922
0.9910062519759544
1.0231664189182472
1.007371198883892
1.0084112430706582
1.0108429034100812
1.0156603496577974
1.0212182864754253
1.0269453467814103
1.032698683773929
1.0385281032681648
1.044450789534432
1.0503253828022627
1.0558157824821979
1.0604826867022714
1.0639633076421486
1.0661222533467591
1.0670938694483303
1.067205254590651
1.0664652147161104
1.0544019143386167
1.0466986094869608
1.0475779249539392
1.0484053127078505
1.0483518816742143
1.047312050357919
1.0452528607411566
1.0422284499662424
1.0383960949078745
1.0339821577573884
1.0292184834128808
1.0243200768322744
1.0192019989437637
1.0144621668825735
1.0069612699481645
1.008973714439297
0.8701172493231195
0.6462343237028778
0.5809255549013146
0.5926149329848187
0.595988681206626
0.6038236763633704
0.612580288800714
0.623158968246234
0.6354438296260125
0.6495806519197693
0.6656996506421388
0.6839996247460484
0.7047537192371148
0.7283309731974945
0.7552494195711144
0.7862300659310022
0.8222667020327725
0.8646846917652693
0.9153333052367205
0.9765753592582497
1.049326115798068
1.1267675186856854
1.1967186929143299
1.2525329369370959
1.28713894032508
1.2735483607214722
1.2281489492854076
1.1763051598185026
1.1113803478386097
1.0463839894183813
0.9898773639517808
0.9417086859817994
0.9003417615140524
0.8646452667288496
0.833656569857958
0.8066253583016679
0.7829752855750902
0.762265934526279
0.7441670830611131
0.7284610128584188
0.7150438148908872
0.7035752107664315
0.6952523101394177
0.6801748658489757
0.8094530393666374
0.9952428238039457
1.0242016375148042
1.0098817302489502
1.0113083940914078
1.0136845027728452
1.0184271241794005
1.0238827900664504
1.0294968704387333
1.0350778468928583
1.0406517457624247
1.0462361460171408
1.051710286188615
1.056776870278913
1.0610381481959321
1.0641462033820028
1.065926951962265
1.0663994837008297
1.0656871322223194
1.0637108902694559
1.0517298526052175
1.0455290081254924
1.0477545303361269
1.0494609182802772
1.0498731416310418
1.0489972719184537
1.0468657752518626
1.0436185706869674
1.0394900253250148
1.0347647114872283
1.0297143679229233
1.02458398059709
1.0193096404898805
1.014629741644828
1.0073201417472246
1.0117964606585939
0.8747682577991733
0.6489385973080606
0.5848669020318877
0.5996124570300697
0.6039121891212738
0.6128518155603755
0.6228245589414045
0.6346405932062011
0.6482222712868349
0.6637242093064382
0.6812984252287353
0.7011667883182717
0.7236265859307213
0.749075486066552
0.7780635139047409
0.8113079055428698
0.8497509120864418
0.8945509243768889
0.9469890710958949
1.0076400545761917
1.074540304606896
1.1413359224184816
1.2001440589849992
1.2457720202052682
1.2738046634470557
1.2644404851446365
1.2271676486735474
1.182334845384731
1.1268117035324865
1.068449520229021
1.01390988702475
0.9653705586448569
0.9228480120626034
0.8857461361670241
0.8532696319536552
0.8247679665615268
0.7997141170333212
0.7776835373999158
0.7583512127149166
0.7414920261661119
0.7269856747244582
0.7145082781115555
0.7048759335191752
0.6888833543967102
0.8189508410862774
0.9984166417585498
1.0221507556214842
1.0102950230518186
1.0122664087266875
1.0146257513688202
1.0192016668578148
1.0245023911419218
1.0300245983213001
1.0355379372646962
1.0410272883416918
1.0464827102993919
1.0517763269021498
1.056629269246372
1.060677978723054
1.063590696054691
1.0651429373119483
1.0651993796215238
1.0636829986591398
1.0607508662373377
1.0484708190234011
1.0436633304625356
1.0473635953669636
1.0496239689296032
1.0499640973131257
1.0487590420404744
1.0462466142142286
1.0426794101674945
1.0383408959337903
1.0335249136426143
1.0284882468797798
1.0234578180511034
1.0183651803087472
1.014044054891445
1.0070950797129163
1.014190087287621
0.8820013212664699
0.6549193725101756
0.5903157029949744
0.608737750614799
0.6142697065803439
0.6245645926656677
0.6360222232917536
0.6493516832802209
0.664513084681533
0.6816711685016215
0.7009967612738471
0.7227256481215255
0.7471638667842926
0.774708547385613
0.8058917421182269
0.8413381605557569
0.8817880350030638
0.9279238191369832
0.9798594333764087
1.0362985756373126
1.0940162265623932
1.1483148071126072
1.1944586286268661
1.2286239070383902
1.2488525148220315
1.2435326267134001
1.2165106771004193
1.180774522178038
1.136001713063393
1.086653930936961
1.037264203507559
0.9906499459753165
0.9481675411926361
0.9102419934346693
0.8765608566424096
0.8466868826447003
0.820207489640233
0.7967574712064488
0.7760526218419832
0.757885142710919
0.7421354203961106
0.7284910285395666
0.7174947912650131
0.7020122682027186
0.8316165611314774
1.0003754509785234
1.0180986342944927
1.009825758728117
1.0126752712721336
1.0151914265536905
1.019556424501734
1.0245697135303486
1.029848766821706
1.0351588601367037
1.0404517587270594
1.0456876688126826
1.0507283090255581
1.0553129930273046
1.0591179929023657
1.0618394491904213
1.0632177198384964
1.0629980229829974
1.060988654106207
1.0574133688890537
1.0446397355220869
1.041072262935583
1.0457868225706566
1.0481063339354824
1.048138000338968
1.0466135368183869
1.0439405445889478
1.0404085382547188
1.03626224392659
1.0317282355867774
1.0269983392970201
1.0222601998670533
1.0174458907027475
1.0134503516579403
1.006785810803921
1.0162496890094157
0.8932669131152029
0.6661451732519557
0.5977965696449263
0.6204437663851992
0.6277162673650796
0.6396415349982727
0.6528703608199131
0.6680061616711468
0.6850410527705865
0.7041411969196707
0.7254814093987874
0.7492877241502653
0.7758426904996487
0.8054909507095595
0.8386640725394267
0.8757577706165085
0.9170154978268745
0.9622413401147007
1.0102552380380678
1.0588465254885011
1.105333297210116
1.146726141295094
1.180293236240556
1.2038029222500013
1.2167438211766148
1.2142731769528325
1.1971703737479267
1.1714546581105034
1.1378757767015524
1.0988112097368568
1.057149930837397
1.0152900609323219
0.9749894774837159
0.9375016176705583
0.9033085391559865
0.8724301538445478
0.8446996080497184
0.8198784051046653
0.7977631049724041
0.7781986171503709
0.7610970327181434
0.7461798598294007
0.7339665090113222
0.721460731251799
0.8473999775025886
0.9997376534232538
1.011978317522732
1.0082202580749247
1.0123578287953205
1.0154146887937392
1.0197652466902398
1.0245606800136473
1.0295824316925635
1.0346256792485016
1.0396189874018766
1.0444920913229625
1.0490971575008925
1.0531997542724776
1.056534669179766
1.05886262890439
1.0599609729438988
1.059576701879705
1.0574707295547596
1.0535155034258517
1.0401932176019026
1.0376605570376098
1.0428185125738993
1.0448070997011045
1.044565615370311
1.0430417762998039
1.0406434679138628
1.0375598204019565
1.0339125640535907
1.029831210094029
1.02545352947765
1.020956071389387
1.0163037756415887
1.0124239730109243
1.0059272185934558
1.016548012062492
0.91019246246937
0.6861264619236281
0.6080822651926104
0.6351694299617527
0.644950801296126
0.6588110078935039
0.6740886352567779
0.6912930115179885
0.7104334422765184
0.7316569601228402
0.7551147237634562
0.7809859828882264
0.8094795690151236
0.8408082921035507
0.8751215401222203
0.9123383628471387
0.9519889433705466
0.9930464961538445
1.033868470793831
1.072609098858201
1.107554231897318
1.1369286797814566
1.1595327159869897
1.1745377476367937
1.1821087182857934
1.1812322638038646
1.1716034790940588
1.154936553209169
1.1318001146475063
1.103144378577194
1.0705587588628538
1.035770793742713
1.0002691375371486
0.9653998559908282
0.9321973351188082
0.901259539475826
0.8728398078627514
0.8469780242972417
0.8236367443531216
0.8027594139576151
0.7843355038088198
0.7681929202171491
0.755215947680221
0.7487069464090363
0.8657222532900173
0.9953334951419479
1.0040377792354094
1.0052187383964308
1.0108776495754679
1.014830684875622
1.0194533352983928
1.0242356180405765
1.029119888932947
1.0339474769571888
1.0386296201999865
1.0430634951673865
1.0470894575965553
1.0505031828517082
1.0531158509737917
1.0548005012849058
1.0554676037470057
1.0549800634604332
1.0530552141929788
1.0489259054177154
1.0352467125983362
1.033481624939406
1.0385791353733165
1.0400537537241263
1.0396769618542534
1.0384558546694362
1.0366290951281536
1.0341992636113677
1.031153141635175
1.0275505016360533
1.023509263327146
1.0192129089938224
1.0146629395499256
1.0107531210252503
1.004395345837092
1.0140645172155727
0.9341171162227397
0.7188008346101435
0.6229995369494985
0.6534332227341304
0.6665880128291993
0.6826619060740977
0.7001712105158489
0.7195667542095531
0.7408556335846218
0.7641363603793785
0.7894874626921529
0.8169865054604606
0.84667035755043
0.8784616034709242
0.9120553006184958
0.9468553311817711
0.9819537977160817
1.0161483408275167
1.0481697943364596
1.0768819110806893
1.1013173028460257
1.1207328600828044
1.1349649999613232
1.144009281131851
1.1483166519108652
1.148184457318819
1.1431830030918841
1.1333018989624641
1.118655530271384
1.09935311898269
1.07590772568448
1.0492465334229204
1.020419550490613
0.9904668689423759
0.9604092623123618
0.9311268969376244
0.9032497212790517
0.8771822527500073
0.8531690122901447
0.8313527463229228
0.8118868521717917
0.7948469203763573
0.7819538685602887
0.7835776456916851
0.8852956220446178
0.9873140356171041
0.9953318954351023
1.0011736842871921
1.00826583972745
1.0132390929405486
1.0183155449180958
1.0232679669888587
1.0281543059711968
1.0328508051258318
1.0372478628980653
1.041211005320113
1.0445752703080773
1.0471790707680637
1.0489295871938331
1.04984383433546
1.0500121560128843
1.049452681489507
1.0478477331380538
1.0437121431976162
1.0299287453158124
1.0286620424021433
1.0333523371276032
1.034299166676042
1.0339203864619058
1.0331232565246824
1.0319419584366207
1.0302344649527548
1.0278979812398863
1.0249332835993143
1.021414087123949
1.0174830066631502
1.013129281938928
1.0091206968717572
1.0028565088397128
1.0094279307620788
0.9629602420903995
0.7655583554875762
0.6469428111041213
0.676077219392234
0.6930040527389576
0.7113750304815234
0.7310580101478614
0.7524748992837356
0.7755970714767677
0.8004305786343021
0.8269156094591167
0.8549399105883562
0.8842625259532142
0.9144568020953024
0.94490913772618
0.97484504390176
1.0033950778212832
1.029689222087825
1.0529934243820755
1.0727529506121845
1.088662521932912
1.1007393751263923
1.1092838821476025
1.1146045431084102
1.1171537846740955
1.1173146153734714
1.1148428886412913
1.1094122377458078
1.1008282995948626
1.0888414704698377
1.073371080666968
1.0546310445289402
1.0331114294336232
1.0094603709894479
0.9844117161016958
0.9587443153211552
0.9331885847102162
0.9083670176315096
0.8847838219325656
0.8628512667769759
0.8429986905218574
0.825756473256451
0.8140786825137745
0.8233942981644562
0.9043625452525834
0.9776862205207599
0.987456671742633
0.9969534881751916
1.0050947808926456
1.0109423013008672
1.0164512566086052
1.0216038901156086
1.0265162424256455
1.031080358198828
1.0351657385179283
1.0386195644264786
1.0412932680549727
1.0430898778397035
1.044021417598593
1.0442325306222842
1.0439520927591202
1.0433196113772514
1.0420385089605315
1.0380184229825675
1.0243868721166813
1.0233788277008111
1.0274880366864476
1.0280150648093322
1.0277615323209905
1.0274291720650506
1.0269079140587465
1.025992232419787
1.0245107578492805
1.0223614569242514
1.0195008471260139
1.0159611551476015
1.0116730949143904
1.007213960639114
1.0005734916479967
1.0022080551872257
0.9859266980422909
0.8230367694866187
0.6888997906342101
0.7047464523036796
0.7242463478085003
0.7444879709343464
0.7658362317853096
0.7886358051214815
0.8127590436746686
0.8380629457755451
0.8643054403849723
0.8911433537045383
0.9181129927224302
0.9446450666629586
0.9701177501587713
0.9938943903212518
1.0153961730337924
1.034173891273916
1.0499493269213427
1.0626531677291635
1.0724353863370262
1.0796100146097576
1.0845754357916915
1.087691444757434
1.089278714182055
1.0895505444739517
1.0884219748403325
1.0856616045850207
1.0810047587280591
1.0741261520407925
1.064737424500458
1.0526752692714014
1.0379665236568352
1.0208371509243508
1.0016743029215658
0.9809875907239851
0.9593669720005837
0.9374267058646113
0.9157707169803607
0.8950033966637037
0.8758492482686782
0.8594541007503961
0.8500897307632604
0.8634535393425812
0.9213429306673087
0.9697237238343777
0.9818903482878992
0.9934436534932554
1.0020717211878685
1.008480427193553
1.0142522244023104
1.019483330360174
1.0242923750108996
1.028581648173359
1.032226665503539
1.0350988046216838
1.0371036674670255
1.038221352974994
1.0385398005286606
1.0382580797713568
1.0376484297166642
1.0369169310627082
1.035872289681699
1.0320387796114956
1.0188077764283427
1.0178479976603283
1.0213370850882972
1.0216501231972128
1.02168693101257
1.0218762115669984
1.0219929211384253
1.0217868916268529
1.021017939694818
1.0194790626331134
1.0170168774957127
1.0135687169286045
1.0090216865915307
1.003743820682585
0.9962720532187482
0.9922702617407625
0.9912633729294686
0.8815860077091111
0.7540738579363946
0.7422493344565564
0.7601393134953366
0.7808472918629314
0.8027125075368886
0.8257081519646154
0.8495043266608584
0.8737722716683308
0.898105095347089
0.9220343666405979
0.9450634604536761
0.9666999466993355
0.9864884949545927
1.0040569598534932
1.0191594824310992
1.0316996305362518
1.0417411746266778
1.049492815679667
1.0552634492664899
1.0594049855666623
1.0622571804055105
1.0640991766466221
1.0651305701184974
1.065457288627675
1.0650585921946953
1.063810504006527
1.0615107824171346
1.05789112901216
1.052658116420277
1.045539659571907
1.0363404016906121
1.0249871080835073
1.0115518560407548
0.9962509497199368
0.9794310813458472
0.9615482885819282
0.9431519002103197
0.9249029312172572
0.9077346489778524
0.8933529994324845
0.8866554152673778
0.8990550060742075
0.9358518668192678
0.9662129702990202
0.97943405518787
0.9912024993081328
0.999681569419484
1.0062577746997448
1.012051707631223
1.0171629461590639
1.0216628334982325
1.0254702839291225
1.028512272601639
1.0307404309816333
1.032148834206488
1.0327842824377378
1.032752739217872
1.0322202777441893
1.0314153571462317
1.030562745210632
1.029636147620768
1.0260116343274708
1.0134186252622657
1.0123445968082319
1.0152904729781775
1.0156626047182855
1.016161180867051
1.0168754323180278
1.0174589500926263
1.0176338929840718
1.0171601894658324
1.0158359747258334
1.0135060657985395
1.0100816112231787
1.0054212945493368
0.9996661442733632
0.9917574914118494
0.9834829958063733
0.9832917168282719
0.9267155931770985
0.8283872462069584
0.7908328693130618
0.8003236889081615
0.8188287628801343
0.839443567559023
0.8610628855975135
0.8829994691847862
0.9047323613461125
0.9257709344258294
0.9456662209214157
0.9640214508976742
0.9805111442511244
0.9949069841327689
1.0070988832151397
1.0171020996582967
1.0250497056962313
1.0311691162981749
1.0357447657728447
1.039078268821085
1.0414532328928654
1.0431105693358622
1.0442337975936498
1.0449432479392378
1.0452982646011613
1.0452969995724617
1.0448762749231912
1.0439124906655435
1.0422267165896246
1.03959765941126
1.0357806571035961
1.0305370668876814
1.023670145206382
1.01506053815012
1.004694732977513
0.9926831703399515
0.9792720042693177
0.9648617639457696
0.9500608069235447
0.9358785680539814
0.9242503833623141
0.9194567055569188
0.9277857539881715
0.9488521287425502
0.9677746673121356
0.9799687108263293
0.9904327757097047
0.9981801548253706
1.004499357371136
1.0100283701041453
1.0147863350031114
1.0187742216390405
1.0219405287972398
1.0242945498892873
1.0258924431355867
1.026816514653289
1.02715249240928
1.0269802131749515
1.026386022476728
1.0255085844660792
1.0245460229874082
1.0236384868429753
1.02020966770781
1.0084649619039103
1.007191978197966
1.0097830541272212
1.0104926111863382
1.011527754382417
1.012624411677499
1.0133757361552234
1.0135665230881048
1.0130685362655822
1.0117873682931198
1.009627443693257
1.00648646975828
1.0021727981190625
0.9966129809617956
0.9890568741061406
0.9790616810544054
0.9745477118362144
0.9500447468350074
0.8894842305939663
0.8465455270217782