# vtk DataFile Version 3.0 
airfoil.vtk
ASCII
DATASET UNSTRUCTURED_GRID
POINTS         3200 double
0.5 0.0 0.0
0.49813567635 1.4622807076e-05 0.0
0.49256242082 0.00011620630276 0.0
0.48333889136 0.00038787415751 0.0
0.47056125044 0.00090527665137 0.0
0.45436085652 0.0017333401416 0.0
0.43490120827 0.0029235584197 0.0
0.41237429867 0.0045119424084 0.0
0.38699655606 0.0065176988099 0.0
0.35900455529 0.0089426608204 0.0
0.3286506753 0.011771449181 0.0
0.29619886082 0.014972303193 0.0
0.26192062017 0.018498491335 0.0
0.22609135975 0.022290190985 0.0
0.18898712346 0.026276716525 0.0
0.15088177428 0.030378973925 0.0
0.11204462728 0.034512026168 0.0
0.072738520471 0.038587665681 0.0
0.033218292595 0.042516905396 0.0
-0.0062703751481 0.046212317196 0.0
-0.045491803279 0.049590163934 0.0
-0.084220896461 0.05257228766 0.0
-0.12224351563 0.055087731419 0.0
-0.15935668786 0.057074084514 0.0
-0.19536869673 0.058478551282 0.0
-0.23009909023 0.059258751259 0.0
-0.26337863627 0.059383264318 0.0
-0.29504925009 0.058831938183 0.0
-0.32496391185 0.057595977997 0.0
-0.35298658704 0.055677838699 0.0
-0.3789921587 0.053090941054 0.0
-0.40286637572 0.049859231674 0.0
-0.42450581946 0.046016606344 0.0
-0.44381788798 0.041606214732 0.0
-0.46072079596 0.036679663188 0.0
-0.47514358722 0.031296130927 0.0
-0.48702615597 0.025521413581 0.0
-0.49631927316 0.019426906852 0.0
-0.50298461387 0.013088541932 0.0
-0.5069947826 0.0065856834591 0.0
-0.50833333333 7.4631658878e-18 0.0
-0.5069947826 -0.0065856834591 0.0
-0.50298461387 -0.013088541932 0.0
-0.49631927316 -0.019426906852 0.0
-0.48702615597 -0.025521413581 0.0
-0.47514358722 -0.031296130927 0.0
-0.46072079596 -0.036679663188 0.0
-0.44381788798 -0.041606214732 0.0
-0.42450581946 -0.046016606344 0.0
-0.40286637572 -0.049859231674 0.0
-0.3789921587 -0.053090941054 0.0
-0.35298658704 -0.055677838699 0.0
-0.32496391185 -0.057595977997 0.0
-0.29504925009 -0.058831938183 0.0
-0.26337863627 -0.059383264318 0.0
-0.23009909023 -0.059258751259 0.0
-0.19536869673 -0.058478551282 0.0
-0.15935668786 -0.057074084514 0.0
-0.12224351563 -0.055087731419 0.0
-0.084220896461 -0.05257228766 0.0
-0.045491803279 -0.049590163934 0.0
-0.0062703751481 -0.046212317196 0.0
0.033218292595 -0.042516905396 0.0
0.072738520471 -0.038587665681 0.0
0.11204462728 -0.034512026168 0.0
0.15088177428 -0.030378973925 0.0
0.18898712346 -0.026276716525 0.0
0.22609135975 -0.022290190985 0.0
0.26192062017 -0.018498491335 0.0
0.29619886082 -0.014972303193 0.0
0.3286506753 -0.011771449181 0.0
0.35900455529 -0.0089426608204 0.0
0.38699655606 -0.0065176988099 0.0
0.41237429867 -0.0045119424084 0.0
0.43490120827 -0.0029235584197 0.0
0.45436085652 -0.0017333401416 0.0
0.47056125044 -0.00090527665137 0.0
0.48333889136 -0.00038787415751 0.0
0.49256242082 -0.00011620630276 0.0
0.49813567635 -1.4622807076e-05 0.0
0.50017135964 0.0 0.0
0.49831942518 0.0011410251367 0.0
0.49278277215 0.0023572457333 0.0
0.4836183928 0.003720306132 0.0
0.47091976994 0.00529493343 0.0
0.45481470525 0.0071359273209 0.0
0.43546244078 0.0092856504326 0.0
0.41305021787 0.011772127677 0.0
0.38778943697 0.01460782132 0.0
0.35991158788 0.017789105006 0.0
0.32966411432 0.021296418692 0.0
0.29730636052 0.025095050626 0.0
0.2631057243 0.029136464434 0.0
0.2273341127 0.033360070132 0.0
0.19026476679 0.037695327731 0.0
0.15216949346 0.042064070216 0.0
0.11331631618 0.046382937733 0.0
0.073967535126 0.05056582514 0.0
0.034378170487 0.054526258903 0.0
-0.005205248912 0.058179634905 0.0
-0.044545596523 0.061445264788 0.0
-0.08341580627 0.064248193737 0.0
-0.12159932546 0.066520766463 0.0
-0.15889040704 0.068203930035 0.0
-0.19509428137 0.069248271987 0.0
-0.23002724237 0.069614799753 0.0
-0.26351667685 0.06927547314 0.0
-0.29540106031 0.06821350546 0.0
-0.32552993686 0.066423451371 0.0
-0.35376389599 0.06391110072 0.0
-0.37997455484 0.060693198061 0.0
-0.40404455084 0.056797007147 0.0
-0.425867547 0.05225973897 0.0
-0.44534824955 0.04712786084 0.0
-0.46240243661 0.041456302802 0.0
-0.47695699489 0.035307576446 0.0
-0.48894996124 0.028750819967 0.0
-0.49833056543 0.021860782196 0.0
-0.50505927076 0.014716757341 0.0
-0.50910780918 0.0074014813383 0.0
-0.51045920844 9.3868055415e-18 0.0
-0.50910780918 -0.0074014813383 0.0
-0.50505927076 -0.014716757341 0.0
-0.49833056543 -0.021860782196 0.0
-0.48894996124 -0.028750819967 0.0
-0.47695699489 -0.035307576446 0.0
-0.46240243661 -0.041456302802 0.0
-0.44534824955 -0.04712786084 0.0
-0.425867547 -0.05225973897 0.0
-0.40404455084 -0.056797007147 0.0
-0.37997455484 -0.060693198061 0.0
-0.35376389599 -0.06391110072 0.0
-0.32552993686 -0.066423451371 0.0
-0.29540106031 -0.06821350546 0.0
-0.26351667685 -0.06927547314 0.0
-0.23002724237 -0.069614799753 0.0
-0.19509428137 -0.069248271987 0.0
-0.15889040704 -0.068203930035 0.0
-0.12159932546 -0.066520766463 0.0
-0.08341580627 -0.064248193737 0.0
-0.044545596523 -0.061445264788 0.0
-0.005205248912 -0.058179634905 0.0
0.034378170487 -0.054526258903 0.0
0.073967535126 -0.05056582514 0.0
0.11331631618 -0.046382937733 0.0
0.15216949346 -0.042064070216 0.0
0.19026476679 -0.037695327731 0.0
0.2273341127 -0.033360070132 0.0
0.2631057243 -0.029136464434 0.0
0.29730636052 -0.025095050626 0.0
0.32966411432 -0.021296418692 0.0
0.35991158788 -0.017789105006 0.0
0.38778943697 -0.01460782132 0.0
0.41305021787 -0.011772127677 0.0
0.43546244078 -0.0092856504326 0.0
0.45481470525 -0.0071359273209 0.0
0.47091976994 -0.00529493343 0.0
0.4836183928 -0.003720306132 0.0
0.49278277215 -0.0023572457333 0.0
0.49831942518 -0.0011410251367 0.0
0.50087132336 0.0 0.0
0.49903247112 0.0025482560964 0.0
0.49353441385 0.005157370789 0.0
0.48443222506 0.0078849870228 0.0
0.47181630039 0.01078248357 0.0
0.45581034341 0.013892248367 0.0
0.43656869111 0.017245404995 0.0
0.41427310916 0.020860091583 0.0
0.38912920475 0.024740354177 0.0
0.36136261103 0.028875677619 0.0
0.33121509277 0.033241139858 0.0
0.29894070934 0.037798142988 0.0
0.2648021505 0.042495648471 0.0
0.2290673358 0.047271825969 0.0
0.19200634192 0.052056015116 0.0
0.15388869604 0.056770897067 0.0
0.11498105022 0.061334776359 0.0
0.07554523146 0.065663882329 0.0
0.035836646575 0.069674611304 0.0
-0.0038969901054 0.073285644645 0.0
-0.043416645381 0.076419892129 0.0
-0.08249271451 0.079006224146 0.0
-0.12090556992 0.080980968926 0.0
-0.15844595187 0.082289162207 0.0
-0.19491523812 0.082885545957 0.0
-0.23012562471 0.082735320198 0.0
-0.26390024515 0.081814657512 0.0
-0.29607324996 0.080110993784 0.0
-0.32648986332 0.077623111347 0.0
-0.35500642964 0.074361032126 0.0
-0.38149045819 0.070345738994 0.0
-0.40582067119 0.065608743491 0.0
-0.4278870577 0.0601915175 0.0
-0.44759093367 0.054144805699 0.0
-0.46484500698 0.047527834562 0.0
-0.47957344508 0.04040743267 0.0
-0.49171194247 0.032857075999 0.0
-0.50120778472 0.024955870899 0.0
-0.50801990599 0.016787486557 0.0
-0.51211893696 0.0084390479908 0.0
-0.51348724109 1.2140641168e-17 0.0
-0.51211893696 -0.0084390479908 0.0
-0.50801990599 -0.016787486557 0.0
-0.50120778472 -0.024955870899 0.0
-0.49171194247 -0.032857075999 0.0
-0.47957344508 -0.04040743267 0.0
-0.46484500698 -0.047527834562 0.0
-0.44759093367 -0.054144805699 0.0
-0.4278870577 -0.0601915175 0.0
-0.40582067119 -0.065608743491 0.0
-0.38149045819 -0.070345738994 0.0
-0.35500642964 -0.074361032126 0.0
-0.32648986332 -0.077623111347 0.0
-0.29607324996 -0.080110993784 0.0
-0.26390024515 -0.081814657512 0.0
-0.23012562471 -0.082735320198 0.0
-0.19491523812 -0.082885545957 0.0
-0.15844595187 -0.082289162207 0.0
-0.12090556992 -0.080980968926 0.0
-0.08249271451 -0.079006224146 0.0
-0.043416645381 -0.076419892129 0.0
-0.0038969901054 -0.073285644645 0.0
0.035836646575 -0.069674611304 0.0
0.07554523146 -0.065663882329 0.0
0.11498105022 -0.061334776359 0.0
0.15388869604 -0.056770897067 0.0
0.19200634192 -0.052056015116 0.0
0.2290673358 -0.047271825969 0.0
0.2648021505 -0.042495648471 0.0
0.29894070934 -0.037798142988 0.0
0.33121509277 -0.033241139858 0.0
0.36136261103 -0.028875677619 0.0
0.38912920475 -0.024740354177 0.0
0.41427310916 -0.020860091583 0.0
0.43656869111 -0.017245404995 0.0
0.45581034341 -0.013892248367 0.0
0.47181630039 -0.01078248357 0.0
0.48443222506 -0.0078849870228 0.0
0.49353441385 -0.005157370789 0.0
0.49903247112 -0.0025482560964 0.0
0.50249899596 0.0 0.0
0.50067270419 0.0042941903284 0.0
0.49521160189 0.0086319826563 0.0
0.48616862126 0.013054148294 0.0
0.47363071262 0.01759594453 0.0
0.45771700605 0.022284715339 0.0
0.43857636522 0.027137892621 0.0
0.41638444766 0.032161486801 0.0
0.3913404023 0.037349123298 0.0
0.36366334085 0.04268164739 0.0
0.33358871692 0.048127287309 0.0
0.30136473571 0.053642336487 0.0
0.26724889963 0.059172292559 0.0
0.23150477426 0.0646533741 0.0
0.19439903587 0.070014326292 0.0
0.15619883884 0.075178423574 0.0
0.11716952064 0.080065579724 0.0
0.077572643492 0.084594482764 0.0
0.037664357902 0.088684682092 0.0
-0.0023059378522 0.092258567182 0.0
-0.042096674801 0.095243189773 0.0
-0.081474963287 0.09757189396 0.0
-0.12021725308 0.099185730101 0.0
-0.15810983951 0.10003463871 0.0
-0.19494924874 0.10007839916 0.0
-0.23054253142 0.099287345059 0.0
-0.26470748963 0.097642853494 0.0
-0.29727285746 0.095137619549 0.0
-0.32807845127 0.09177572996 0.0
-0.35697530144 0.087572551664 0.0
-0.38382577409 0.082554451769 0.0
-0.40850368784 0.076758365689 0.0
-0.43089442846 0.070231229949 0.0
-0.45089506203 0.063029295615 0.0
-0.46841444598 0.05521733752 0.0
-0.48337333596 0.046867773642 0.0
-0.49570448637 0.038059708094 0.0
-0.50535274156 0.028877910365 0.0
-0.51227511502 0.019411742676 0.0
-0.51644085395 0.0097540466561 0.0
-0.51783148705 1.6119948917e-17 0.0
-0.51644085395 -0.0097540466561 0.0
-0.51227511502 -0.019411742676 0.0
-0.50535274156 -0.028877910365 0.0
-0.49570448637 -0.038059708094 0.0
-0.48337333596 -0.046867773642 0.0
-0.46841444598 -0.05521733752 0.0
-0.45089506203 -0.063029295615 0.0
-0.43089442846 -0.070231229949 0.0
-0.40850368784 -0.076758365689 0.0
-0.38382577409 -0.082554451769 0.0
[...]
POINT_DATA  3200
FIELD  FlowField  4
Density    1 3200  double
0.9902150057869963
0.9902315177909842
0.9907984584460297
0.992074738510991
0.9937243995830849
0.9956487463011937
0.9976030497141424
0.9993525109106578
1.0007103697218969
1.0015710156275406
1.0019166378307696
1.001802585514907
1.0013299062705874
1.0006139431476448
0.9997551097808337
0.9988171473851675
0.9978189387659694
0.9967436154846581
0.9955620736872036
0.9942536670077118
0.992806714178234
0.991199209419116
0.9893835270582279
0.9873131278619471
0.9850211790070383
0.9827087549620117
0.9807656691754094
0.9796797489435835
0.9798743260082917
0.9815042047192983
0.9843198989609834
0.9877228094668395
0.9909760258301514
0.9935642798700606
0.9955129241436761
0.9974748524139974
1.0005950722268824
1.00831859172597
1.0168361646944786
1.0263044195957662
1.032963077365066
1.0263044195959594
1.0168361646956225
1.008318591728089
1.0005950722299803
0.9974748524174275
0.9955129241468164
0.9935642798723555
0.9909760258313514
0.9877228094670906
0.9843198989606956
0.9815042047189058
0.9798743260080858
0.9796797489436626
0.9807656691757266
0.9827087549624534
0.9850211790074843
0.9873131278623114
0.9893835270584783
0.9911992094192699
0.9928067141783303
0.9942536670077828
0.9955620736872609
0.9967436154846967
0.9978189387659828
0.9988171473851569
0.9997551097808075
1.0006139431476146
1.0013299062705636
1.001802585514897
1.0019166378307771
1.0015710156275683
1.0007103697219437
0.9993525109107214
0.9976030497142201
0.9956487463012808
0.9937243995831706
0.9920747385110602
0.9907984584460612
0.9902315177909606
0.9902978047100628
0.9903208362338854
0.9908538696980227
0.9920741750510622
0.993694102259701
0.9955922539623947
0.9975252698532585
0.9992598036336052
1.0006102401239
1.0014708495390348
1.001822853142681
1.0017205387721164
1.001264358014325
1.0005697134191491
0.9997376617413083
0.9988330742488094
0.9978764167313345
0.9968526901309868
0.9957345025651383
0.9945023939310151
0.9931455523462414
0.9916433797757974
0.9899508393911283
0.9880243803995012
0.9858982927628321
0.9837704302000255
0.982023443847269
0.9811400176910294
0.9815387082669145
0.9833741718240749
0.9864146662799583
0.9900932975108856
0.9937093719596387
0.9967690656251389
0.9992926910494042
1.00194541390631
1.0058933551621672
1.0140131759348945
1.0227886055116349
1.031796901549121
1.0376857205536931
1.0317969015493993
1.0227886055128754
1.0140131759370707
1.0058933551652438
1.0019454139096848
0.9992926910524886
0.9967690656273965
0.9937093719608274
0.9900932975111484
0.986414666279694
0.9833741718237043
0.9815387082667208
0.9811400176911118
0.9820234438475846
0.9837704302004625
0.9858982927632731
0.9880243803998618
0.9899508393913777
0.9916433797759522
0.9931455523463392
0.9945023939310875
0.9957345025651961
0.9968526901310258
0.9978764167313489
0.9988330742487999
0.9997376617412832
1.0005697134191198
1.0012643580143021
1.001720538772107
1.0018228531426896
1.0014708495390632
1.0006102401239472
0.9992598036336688
0.9975252698533359
0.9955922539624811
0.9936941022597867
0.9920741750511319
0.9908538696980559
0.9903208362338691
0.9906129053331316
0.9906140267370995
0.9910360371274792
0.9921229235332557
0.9936573514720748
0.9954777875826994
0.9973443322419728
0.9990284045055359
1.0003487371441968
1.0012009481541286
1.001565051744827
1.00149299851632
1.0010828711025035
1.0004481785359753
0.9996887908404961
0.9988695262064375
0.9980125180336349
0.9971060513849349
0.9961261021168986
0.9950548778044882
0.9938815191910837
0.9925859674253271
0.991126988432888
0.9894675037157838
0.9876459821121057
0.9858546125093428
0.9844588013455322
0.9839208992859214
0.9846375788027562
0.9867562288194461
0.9900743422896572
0.9940865905631335
0.9981722817672212
1.0018899863732322
1.0052422691414886
1.008838477863905
1.0138205127513724
1.02209802886385
1.030593146541211
1.038689799482621
1.0435643019948442
1.0386897994830353
1.0305931465425335
1.0220980288660078
1.0138205127542999
1.008838477867093
1.0052422691444056
1.0018899863753872
0.9981722817683897
0.9940865905634413
0.9900743422894633
0.9867562288191359
0.9846375788025947
0.9839208992860092
0.9844588013458369
0.9858546125097627
0.987645982112531
0.9894675037161347
0.9911269884331351
0.9925859674254841
0.993881519191185
0.9950548778045627
0.996126102116957
0.9971060513849741
0.9980125180336502
0.9988695262064303
0.9996887908404739
1.0004481785359498
1.0010828711024846
1.001492998516315
1.0015650517448393
1.001200948154159
1.000348737144244
0.9990284045055983
0.9973443322420482
0.9954777875827836
0.9936573514721592
0.9921229235333257
0.9910360371275151
0.990614026737094
0.9911382203135662
0.9910904936253725
0.9913645382740388
0.992281144185339
0.9936768017750848
0.9953676002306483
0.9971195607775585
0.9987131148375943
0.9999756035645775
1.0008072486387678
1.001188050607943
1.0011659645030033
1.0008320855958468
1.0002912566834012
0.9996349057705267
0.9989220146578539
0.9981734118997212
0.9973803360059985
0.9965230814496482
0.9955860805693509
0.9945577978502507
0.993418000994105
0.992130616347521
0.9906693812419359
0.9890820500959219
0.9875563857181092
0.9864340034605514
0.9861388242953232
0.9870260814764668
0.989224490961414
0.9925543288498067
0.9965745413168451
1.0007563973054168
1.0047299305843116
1.008495476881953
1.0125106524172813
1.0177048870742293
1.0252772886021513
1.0326671875372122
1.0398248261236
1.0441271988826615
1.0398248261240317
1.0326671875384301
1.0252772886041077
1.0177048870768624
1.0125106524201704
1.0084954768846188
1.0047299305863213
1.0007563973065676
0.9965745413172298
0.992554328849722
0.9892244909611938
0.9870260814763532
0.9861388242954179
0.9864340034608363
0.9875563857184998
0.989082050096321
0.9906693812422714
0.9921306163477639
0.993418000994265
0.9945577978503559
0.9955860805694268
0.9965230814497055
0.9973803360060366
0.998173411899737
0.9989220146578488
0.9996349057705086
1.0002912566833806
1.000832085595834
1.001165964503005
1.0011880506079613
1.0008072486388015
0.9999756035646249
0.998713114837654
0.9971195607776295
0.9953676002307278
0.9936768017751657
0.9922811441854081
0.991364538274077
0.9910904936253732
0.9917397964722161
0.9916660862421004
0.9918193273317998
0.9925465604470523
0.9937528504763418
0.9952603482431999
0.9968492338326568
0.998315196994379
0.9994985645442408
1.0003063428744687
1.0007171177846992
1.000769254141974
1.0005382900390498
1.0001113863267759
0.9995648441691471
0.9989492099206764
0.9982854126448815
0.9975714706389592
0.9967961712491267
0.9959494829606238
0.9950217409887485
0.9939953402798267
0.992843443654255
0.9915553269073303
0.9901900987252606
0.9889277028100434
0.9880753521218086
0.9880016562319192
0.989006699152611
0.9911928473754181
0.9944024241607241
0.9982637194488777
1.0023401171493314
1.0063304219192046
1.0102367325771078
1.0143809846741094
1.019363385265783
1.0257734170241468
1.0318435133282169
1.0377035469706586
1.0411101699996914
1.0377035469710456
1.031843513329256
1.0257734170258264
1.0193633852680464
1.014380984676622
1.0102367325794617
1.0063304219210374
1.002340117150459
0.9982637194493523
0.9944024241607721
0.9911928473753118
0.9890066991525617
0.9880016562320268
0.9880753521220711
0.9889277028103967
0.9901900987256251
0.991555326907644
0.9928434436544908
0.9939953402799888
0.9950217409888582
0.9959494829607016
0.9967961712491832
0.9975714706389956
0.9982854126448971
0.9989492099206738
0.9995648441691339
1.0001113863267626
1.0005382900390456
1.0007692541419846
1.0007171177847256
1.0003063428745078
0.999498564544289
0.9983151969944355
0.9968492338327221
0.9952603482432728
0.9937528504764179
0.9925465604471204
0.9918193273318417
0.9916660862421054
0.992351881421397
0.9922746902731688
0.9923456267278967
0.9928867737087183
0.9938674484255612
0.9951441041560045
0.9965272083338996
0.9978360319258839
0.9989269904886415
0.9997127044289241
1.0001650829859723
1.0003052919582878
1.0001863169370653
0.9998739058018227
0.9994297836519184
0.9988999550208606
0.9983104705637333
0.9976703048207296
0.9969789130512454
0.9962322967704309
0.995422940403633
0.9945365757002047
0.993556279762897
0.9924862394961965
0.9913933347757091
0.9904427813626251
0.9898970947365431
0.9900579874028912
0.9911624495832928
0.99328289303047
0.9962830071140569
0.9998597509205829
1.003662152475763
1.0074429816187702
1.0111769584161636
1.0150718136589014
1.019452248966958
1.0244664636344076
1.0290731500711907
1.0333317702349587
1.035643835484042
1.0333317702353193
1.0290731500720531
1.0244664636357836
1.0194522489688025
1.0150718136609742
1.0111769584181511
1.0074429816203856
1.0036621524768419
0.9998597509211378
0.9962830071142414
0.9932828930304898
0.9911624495833196
0.9900579874030183
0.989897094736783
0.9904427813629368
0.9913933347760331
0.9924862394964831
0.9935562797631213
0.9945365757003668
0.9954229404037465
0.9962322967705114
0.996978913051301
0.9976703048207638
0.998310470563748
0.9988999550208599
0.9994297836519112
0.9998739058018186
1.0001863169370724
1.0003052919583102
1.0001650829860085
0.9997127044289686
0.9989269904886909
0.9978360319259377
0.9965272083339596
0.9951441041560718
0.9938674484256338
0.9928867737087864
0.9923456267279428
0.992274690273178
0.9929409065573532
0.9928678791539551
0.9928845263103111
0.9932604097183712
0.9940029051836836
0.9950196375212136
0.9961683233342021
0.9973004758531216
0.9982897382511717
0.999050678791884
0.9995433900694286
0.9997685726590131
0.9997569592658434
0.9995562673046448
0.9992179826396919
0.998786444785349
0.9982927405566493
0.9977539218879082
0.9971762551226858
0.9965589838029842
0.9958960902489731
0.9951774791808071
0.9943963046730481
0.993569424454464
0.9927670401241613
0.9921343755354296
0.9918844770294095
0.9922493623092578
0.9934020293378677
0.9953845802095217
0.9980800499696088
1.001248670086853
1.004617522220256
1.0079872733344342
1.011303834579809
1.0146617991092737
1.0182037017962102
1.0218938507143571
1.0251649267628713
1.0279627589952947
1.0293471893072186
1.027962758995609
1.0251649267635536
1.0218938507154247
1.0182037017976269
1.0146617991108848
1.011303834581398
1.00798727333579
1.0046175222212426
1.001248670087452
0.9980800499699083
0.9953845802096595
0.993402029337972
0.9922493623094086
0.9918844770296297
0.9921343755356994
0.9927670401244415
0.9935694244547184
0.9943963046732558
0.9951774791809646
0.9958960902490874
0.9965589838030652
0.9971762551227398
0.9977539218879397
0.9982927405566631
0.9987864447853516
0.9992179826396926
0.9995562673046529
0.9997569592658648
0.999768572659049
0.9995433900694746
0.999050678791934
0.998289738251222
0.9973004758531729
0.9961683233342581
0.9950196375212776
0.9940029051837549
0.9932604097184405
0.9928845263103607
0.992867879153969
0.9934816887007932
0.9934108283824858
0.9933894747202439
0.9936304501107289
0.9941488005109416
0.9949031612540435
0.995806732621678
0.9967496454780721
0.9976240904695372
0.99834539189652
0.9988621180172956
0.9991578802840307
0.9992462357164582
0.9991608953673604
0.9989439111435685
0.9986350351476458
0.998264901016213
0.997852793598593
0.9974080252705066
0.9969326466199004
0.9964243369603555
0.9958798878295677
0.9953029956130028
0.9947199692542479
0.9941988610234347
0.9938600843119623
0.9938655421005371
0.9943801520563108
0.9955171188684292
0.9972905219942328
0.9996003556186914
1.002262362304375
1.0050715014200975
1.0078715563890976
1.0105966740872612
1.0132650025921919
1.015913130993598
1.0184658252398344
1.0206246520239675
1.0223000620535112
1.0230476992370554
1.0223000620537586
1.0206246520244735
1.0184658252406096
1.0159131309946194
1.0132650025933687
1.010596674088457
1.007871556390172
1.005071501420947
1.0022623623049665
0.9996003556190609
0.9972905219944602
0.9955171188685995
0.9943801520564859
0.9938655421007431
0.993860084312195
0.9941988610236726
0.9947199692544674
0.9953029956131886
0.9958798878297141
0.996424336960465
0.9969326466199778
0.9974080252705574
0.9978527935986228
0.9982649010162284
0.9986350351476551
0.9989439111435807
0.9991608953673832
0.9992462357164948
0.9991578802840789
0.9988621180173494
0.998345391896573
0.9976240904695866
0.9967496454781205
0.995806732621731
0.9949031612541059
0.9941488005110125
0.993630450110799
0.9933894747202957
0.993410828382503
0.9939555988469567
0.993884008222829
0.9938351433194932
0.9939739483574002
0.9943040207676802
0.9948212691065248
0.9954891371666639
0.9962373116162844
0.9969795537719601
0.9976366929205439
0.9981524386020196
0.9985001243769005
0.998680558116155
0.9987140535187276
0.9986304175837551
0.9984601498119748
0.9982287721279307
0.9979545810545607
0.9976489372436986
0.9973178365490118
0.9969646246779176
0.9965937189399978
0.9962169806320322
0.9958644920110089
0.9955956399083588
0.9955024448095624
0.995697920857703
0.9962881120218046
0.997336483966213
0.9988359149873418
1.0007035607917356
1.0028038911758268
1.0049904162998333
1.007147638480847
1.0092132387240118
1.0111713849460164
1.0130107336121639
1.0146693637127022
1.0160029336322758
1.016953665656281
1.0173425821021795
1.0169536656564586
1.0160029336326284
1.0146693637132336
1.0130107336128598
1.011171384946827
1.0092132387248602
1.0071476384816487
1.0049904163005174
1.0028038911763584
1.00070356079212
0.9988359149876163
0.997336483966426
0.9962881120219971
0.9956979208578982
0.9955024448097642
0.9955956399085588
0.9958644920111941
0.9962169806321919
0.996593718940127
0.9969646246780159
0.9973178365490813
0.9976489372437443
0.9979545810545892
0.9982287721279504
0.998460149811994
0.9986304175837817
0.9987140535187664
0.998680558116206
0.9985001243769587
0.9981524386020775
0.9976366929205963
0.996979553772007
0.9962373116163302
0.9954891371667156
0.9948212691065871
0.994304020767751
0.9939739483574697
0.9938351433195449
0.9938840082228478
0.9943598243776652
0.9942872623260315
0.9942202357639447
0.9942873211614217
0.9944750895739105
0.9948000918652471
0.9952610067337194
0.9958210753018353
0.996418247833095
0.9969869665384441
0.9974751868054317
0.9978524684790986
0.998109541847151
0.9982530282541953
0.9982988289693833
0.9982663460767517
0.9981744138130149
0.9980390415031163
0.9978726623188161
0.9976845281393574
0.9974826568946211
0.997276788774323
0.9970826580333932
0.9969285167907822
0.9968607163168571
0.9969430749414037
0.997246774308748
0.9978317863313373
0.9987258931843659
0.9999106107912086
1.0013218451707055
1.0028662713968544
1.0044465833973404
1.0059845072845426
1.007431477887722
1.0087635195974254
1.0099594529441354
1.010981531356037
1.0117663380679787
1.0122923204990504
1.0124950707106248
1.0122923204991672
1.0117663380682091
1.0109815313563815
1.0099594529445843
1.008763519597954
1.0074314778882913
1.0059845072851061
1.0044465833978542
1.00286627139729
1.0013218451710553
0.9999106107914841
0.9987258931845892
0.9978317863315307
0.9972467743089277
0.9969430749415769
0.996860716317022
0.996928516790933
0.9970826580335235
0.9972767887744292
0.997482656894702
0.9976845281394147
0.997872662318855
0.9980390415031446
0.9981744138130411
0.9982663460767838
0.9982988289694266
0.9982530282542503
0.9981095418472139
0.9978524684791621
0.9974751868054889
0.9969869665384926
0.996418247833138
0.9958210753018797
0.9952610067337718
0.9948000918653104
0.994475089573981
0.9942873211614892
0.994220235763994
0.99428726232605
0.9947101535231027
0.9946387754541901
0.9945630572273569
0.9945841997451024
0.9946742832654133
0.9948585072942933
0.9951543976889394
0.9955481329330722
0.9960009832530007
0.996466581110676
0.9969039306195888
0.997283916606301
0.9975904545071741
0.9978188320491429
0.9979729246118778
0.9980621149905534
0.9980983902856276
0.9980940564003306
0.998060381036085
0.998007275278851
0.9979445201165543
0.9978836679315938
0.9978402395409619
0.9978370096763285
0.9979062246904377
0.9980874803961135
0.9984203249683762
0.9989332774388764
0.9996331569163395
1.000499645067626
1.001488174287374
1.0025404036262158
1.0035979138491204
1.004613363083897
1.0055548219785302
1.0064023655687246
1.007139180259037
1.0077457198086255
1.0081963197358883
1.0084861502640687
1.008593438250716
1.0084861502641402
1.0081963197360293
1.0077457198088355
1.0071391802593106
1.0064023655690506
1.0055548219788906
1.0046133630842675
1.0035979138494773
1.0025404036265397
1.0014881742876547
1.0004996450678627
0.9996331569165392
0.9989332774390491
0.998420324968531
0.9980874803962555
0.9979062246905677
0.9978370096764442
0.9978402395410599
0.9978836679316723
0.9979445201166136
0.9980072752788938
0.9980603810361172
0.9980940564003604
0.9980983902856628
0.9980621149905998
0.9979729246119368
0.9978188320492106
0.9975904545072434
0.9972839166063644
0.9969039306196414
0.9964665811107188
0.9960009832530401
0.995548132933116
0.995154397688993
0.9948585072943572
0.9946742832654818
0.9945841997451654
0.9945630572274019
0.9946387754542073
0.9950337908603872
0.9949666929205487
0.9948912777619014
0.9948870147658941
0.9949164408439898
0.9950069724105998
0.9951828941182244
0.9954429593958818
0.9957672273680609
0.9961284635517396
0.9964990062445612
0.9968547169082823
0.9971773362172007
0.997455732406626
0.9976858369739906
0.9978693357974295
0.9980116736539346
0.9981201171334744
0.9982024255147419
0.9982663287324958
0.9983202848122414
0.9983744509651801
0.9984412446186147
0.9985365147220288
0.9986800588967946
0.9988935132904072
0.9991957442541315
0.9995973229707413
1.0000961852685812
1.0006765344898476
1.0013117210392195
1.001970031732501
1.0026210158685114
1.0032399087251662
1.0038087975218726
1.0043149576649566
1.0047477357495145
1.0050970657160376
1.0053522059695719
1.0055124277514818
1.0055701078509462
1.0055124277515217
1.0053522059696505
1.0050970657161544
1.0047477357496677
1.0043149576651411
1.0038087975220809
1.0032399087253874
1.0026210158687336
1.0019700317327134
1.0013117210394138
1.00067653449002
1.0000961852687322
0.999597322970874
0.9991957442542494
0.9988935132905125
0.9986800588968876
0.9985365147221088
0.9984412446186803
0.998374450965231
0.9983202848122796
0.9982663287325261
0.9982024255147711
0.9981201171335097
0.9980116736539814
0.9978693357974899
0.997685836974062
0.9974557324067017
0.9971773362172721
0.9968547169083423
0.9964990062446082
0.9961284635517774
0.9957672273680975
0.995442959395925
0.9951828941182779
0.9950069724106617
0.9949164408440538
0.9948870147659512
0.9948912777619412
0.9949666929205636
0.995359008383694
0.9952991364371283
0.9952317146735518
0.995217650318568
0.9952141990274829
0.9952481329960781
0.9953438465521679
0.9955055632550344
0.9957262066097956
0.9959934463447861
0.9962915000037527
0.99660302519554
0.9969118211883128
0.9972052805259356
0.997475544964413
0.997719239109443
0.9979363277054997
0.998128808102265
0.9982997670015532
0.998452960699468
0.9985933985442806
0.9987277371686627
0.9988638270329231
0.9990108085687879
0.9991790673324826
0.9993787613633092
0.9996173997580934
0.9998976174265624
1.000216020093938
1.0005636670685114
1.0009280112683232
1.0012954737917543
1.0016536248612165
1.0019922749846557
1.0023033774701462
1.0025802613148973
1.0028167518058102
1.0030071089128068
1.0031457846913714
1.0032320609509984
1.0032626395164659
1.0032320609510168
1.0031457846914078
1.0030071089128614
1.0028167518058824
1.0025802613149852
1.0023033774702472
1.0019922749847652
1.0016536248613308
1.0012954737918682
1.0009280112684318
1.0005636670686124
1.00021602009403
0.9998976174266453
0.9996173997581681
0.9993787613633756
0.9991790673325396
0.9990108085688351
0.9988638270329603
0.9987277371686912
0.998593398544304
0.9984529606994919
0.9982997670015842
0.9981288081023085
0.9979363277055584
0.9977192391095155
0.9974755449644931
0.9972052805260145
0.9969118211883823
0.996603025195595
0.996291500003794
0.9959934463448193
0.9957262066098291
0.9955055632550751
0.9953438465522182
0.9952481329961348
0.9952141990275399
0.9952176503186181
0.9952317146735858
0.9952991364371405
0.9957083067421706
0.9956579071464431
0.9956041712707755
0.9955910923639293
0.9955736127455463
0.9955769993018846
0.9956230633758376
0.9957176438520408
0.9958612681818582
0.9960511951244116
0.996280384452906
0.9965381976137269
0.9968126783114254
0.9970928875333294
0.9973702834635905
0.9976389964662341
0.997895350854001
0.9981371413454903