# vtk DataFile Version 3.0 
cylinder.vtk
ASCII
DATASET UNSTRUCTURED_GRID
POINTS         3200 double
0.5 0.0 0.0
0.49845866687 0.039229547864 0.0
0.4938441703 0.07821723252 0.0
0.4861849602 0.11672268193 0.0
0.47552825815 0.15450849719 0.0
0.46193976626 0.19134171618 0.0
0.44550326209 0.22699524987 0.0
0.42632008218 0.26124928236 0.0
0.40450849719 0.29389262615 0.0
0.3802029828 0.32472402417 0.0
0.35355339059 0.35355339059 0.0
0.32472402417 0.3802029828 0.0
0.29389262615 0.40450849719 0.0
0.26124928236 0.42632008218 0.0
0.22699524987 0.44550326209 0.0
0.19134171618 0.46193976626 0.0
0.15450849719 0.47552825815 0.0
0.11672268193 0.4861849602 0.0
0.07821723252 0.4938441703 0.0
0.039229547864 0.49845866687 0.0
0.0 0.5 0.0
-0.039229547864 0.49845866687 0.0
-0.07821723252 0.4938441703 0.0
-0.11672268193 0.4861849602 0.0
-0.15450849719 0.47552825815 0.0
-0.19134171618 0.46193976626 0.0
-0.22699524987 0.44550326209 0.0
-0.26124928236 0.42632008218 0.0
-0.29389262615 0.40450849719 0.0
-0.32472402417 0.3802029828 0.0
-0.35355339059 0.35355339059 0.0
-0.3802029828 0.32472402417 0.0
-0.40450849719 0.29389262615 0.0
-0.42632008218 0.26124928236 0.0
-0.44550326209 0.22699524987 0.0
-0.46193976626 0.19134171618 0.0
-0.47552825815 0.15450849719 0.0
-0.4861849602 0.11672268193 0.0
-0.4938441703 0.07821723252 0.0
-0.49845866687 0.039229547864 0.0
-0.5 6.1232339957e-17 0.0
-0.49845866687 -0.039229547864 0.0
-0.4938441703 -0.07821723252 0.0
-0.4861849602 -0.11672268193 0.0
-0.47552825815 -0.15450849719 0.0
-0.46193976626 -0.19134171618 0.0
-0.44550326209 -0.22699524987 0.0
-0.42632008218 -0.26124928236 0.0
-0.40450849719 -0.29389262615 0.0
-0.3802029828 -0.32472402417 0.0
-0.35355339059 -0.35355339059 0.0
-0.32472402417 -0.3802029828 0.0
-0.29389262615 -0.40450849719 0.0
-0.26124928236 -0.42632008218 0.0
-0.22699524987 -0.44550326209 0.0
-0.19134171618 -0.46193976626 0.0
-0.15450849719 -0.47552825815 0.0
-0.11672268193 -0.4861849602 0.0
-0.07821723252 -0.4938441703 0.0
-0.039229547864 -0.49845866687 0.0
-1.1102230246e-16 -0.5 0.0
0.039229547864 -0.49845866687 0.0
0.07821723252 -0.4938441703 0.0
0.11672268193 -0.4861849602 0.0
0.15450849719 -0.47552825815 0.0
0.19134171618 -0.46193976626 0.0
0.22699524987 -0.44550326209 0.0
0.26124928236 -0.42632008218 0.0
0.29389262615 -0.40450849719 0.0
0.32472402417 -0.3802029828 0.0
0.35355339059 -0.35355339059 0.0
0.3802029828 -0.32472402417 0.0
0.40450849719 -0.29389262615 0.0
0.42632008218 -0.26124928236 0.0
0.44550326209 -0.22699524987 0.0
0.46193976626 -0.19134171618 0.0
0.47552825815 -0.15450849719 0.0
0.4861849602 -0.11672268193 0.0
0.4938441703 -0.07821723252 0.0
0.49845866687 -0.039229547864 0.0
0.54112028908 0.0 0.0
0.53945219582 0.042455808562 0.0
0.53445820039 0.084649862945 0.0
0.52616909242 0.12632202278 0.0
0.51463597703 0.16721536533 0.0
0.49992995971 0.20707776955 0.0
0.48214170795 0.24566347046 0.0
0.46138089222 0.28273457439 0.0
0.43777550987 0.31806252564 0.0
0.41147109593 0.35142951566 0.0
0.38262982585 0.38262982585 0.0
0.35142951566 0.41147109593 0.0
0.31806252564 0.43777550987 0.0
0.28273457439 0.46138089222 0.0
0.24566347046 0.48214170795 0.0
0.20707776955 0.49992995971 0.0
0.16721536533 0.51463597703 0.0
0.12632202278 0.52616909242 0.0
0.084649862945 0.53445820039 0.0
0.042455808562 0.53945219582 0.0
2.1554436839e-17 0.54112028908 0.0
-0.042455808562 0.53945219582 0.0
-0.084649862945 0.53445820039 0.0
-0.12632202278 0.52616909242 0.0
-0.16721536533 0.51463597703 0.0
-0.20707776955 0.49992995971 0.0
-0.24566347046 0.48214170795 0.0
-0.28273457439 0.46138089222 0.0
-0.31806252564 0.43777550987 0.0
-0.35142951566 0.41147109593 0.0
-0.38262982585 0.38262982585 0.0
-0.41147109593 0.35142951566 0.0
-0.43777550987 0.31806252564 0.0
-0.46138089222 0.28273457439 0.0
-0.48214170795 0.24566347046 0.0
-0.49992995971 0.20707776955 0.0
-0.51463597703 0.16721536533 0.0
-0.52616909242 0.12632202278 0.0
-0.53445820039 0.084649862945 0.0
-0.53945219582 0.042455808562 0.0
-0.54112028908 6.6270995905e-17 0.0
-0.53945219582 -0.042455808562 0.0
-0.53445820039 -0.084649862945 0.0
-0.52616909242 -0.12632202278 0.0
-0.51463597703 -0.16721536533 0.0
-0.49992995971 -0.20707776955 0.0
-0.48214170795 -0.24566347046 0.0
-0.46138089222 -0.28273457439 0.0
-0.43777550987 -0.31806252564 0.0
-0.41147109593 -0.35142951566 0.0
-0.38262982585 -0.38262982585 0.0
-0.35142951566 -0.41147109593 0.0
-0.31806252564 -0.43777550987 0.0
-0.28273457439 -0.46138089222 0.0
-0.24566347046 -0.48214170795 0.0
-0.20707776955 -0.49992995971 0.0
-0.16721536533 -0.51463597703 0.0
-0.12632202278 -0.52616909242 0.0
-0.084649862945 -0.53445820039 0.0
-0.042455808562 -0.53945219582 0.0
-1.5867890874e-16 -0.54112028908 0.0
0.042455808562 -0.53945219582 0.0
0.084649862945 -0.53445820039 0.0
0.12632202278 -0.52616909242 0.0
0.16721536533 -0.51463597703 0.0
0.20707776955 -0.49992995971 0.0
0.24566347046 -0.48214170795 0.0
0.28273457439 -0.46138089222 0.0
0.31806252564 -0.43777550987 0.0
0.35142951566 -0.41147109593 0.0
0.38262982585 -0.38262982585 0.0
0.41147109593 -0.35142951566 0.0
0.43777550987 -0.31806252564 0.0
0.46138089222 -0.28273457439 0.0
0.48214170795 -0.24566347046 0.0
0.49992995971 -0.20707776955 0.0
0.51463597703 -0.16721536533 0.0
0.52616909242 -0.12632202278 0.0
0.53445820039 -0.084649862945 0.0
0.53945219582 -0.042455808562 0.0
0.58907935268 0.0 0.0
0.58726341763 0.046218633323 0.0
0.58182680833 0.092152313402 0.0
0.57280304327 0.13751784383 0.0
0.56024775698 0.18203553101 0.0
0.54423835696 0.22543090862 0.0
0.5248735465 0.26743642971 0.0
0.50227271609 0.30779311628 0.0
0.47657520735 0.34625215593 0.0
0.44793945399 0.38257643591 0.0
0.41654200494 0.41654200494 0.0
0.38257643591 0.44793945399 0.0
0.34625215593 0.47657520735 0.0
0.30779311628 0.50227271609 0.0
0.26743642971 0.5248735465 0.0
0.22543090862 0.54423835696 0.0
0.18203553101 0.56024775698 0.0
0.13751784383 0.57280304327 0.0
0.092152313402 0.58182680833 0.0
0.046218633323 0.58726341763 0.0
1.7962142108e-17 0.58907935268 0.0
-0.046218633323 0.58726341763 0.0
-0.092152313402 0.58182680833 0.0
-0.13751784383 0.57280304327 0.0
-0.18203553101 0.56024775698 0.0
-0.22543090862 0.54423835696 0.0
-0.26743642971 0.5248735465 0.0
-0.30779311628 0.50227271609 0.0
-0.34625215593 0.47657520735 0.0
-0.38257643591 0.44793945399 0.0
-0.41654200494 0.41654200494 0.0
-0.44793945399 0.38257643591 0.0
-0.47657520735 0.34625215593 0.0
-0.50227271609 0.30779311628 0.0
-0.5248735465 0.26743642971 0.0
-0.54423835696 0.22543090862 0.0
-0.56024775698 0.18203553101 0.0
-0.57280304327 0.13751784383 0.0
-0.58182680833 0.092152313402 0.0
-0.58726341763 0.046218633323 0.0
-0.58907935268 7.2162904324e-17 0.0
-0.58726341763 -0.046218633323 0.0
-0.58182680833 -0.092152313402 0.0
-0.57280304327 -0.13751784383 0.0
-0.56024775698 -0.18203553101 0.0
-0.54423835696 -0.22543090862 0.0
-0.5248735465 -0.26743642971 0.0
-0.50227271609 -0.30779311628 0.0
-0.47657520735 -0.34625215593 0.0
-0.44793945399 -0.38257643591 0.0
-0.41654200494 -0.41654200494 0.0
-0.38257643591 -0.44793945399 0.0
-0.34625215593 -0.47657520735 0.0
-0.30779311628 -0.50227271609 0.0
-0.26743642971 -0.5248735465 0.0
-0.22543090862 -0.54423835696 0.0
-0.18203553101 -0.56024775698 0.0
-0.13751784383 -0.57280304327 0.0
-0.092152313402 -0.58182680833 0.0
-0.046218633323 -0.58726341763 0.0
-1.1283785308e-16 -0.58907935268 0.0
0.046218633323 -0.58726341763 0.0
0.092152313402 -0.58182680833 0.0
0.13751784383 -0.57280304327 0.0
0.18203553101 -0.56024775698 0.0
0.22543090862 -0.54423835696 0.0
0.26743642971 -0.5248735465 0.0
0.30779311628 -0.50227271609 0.0
0.34625215593 -0.47657520735 0.0
0.38257643591 -0.44793945399 0.0
0.41654200494 -0.41654200494 0.0
0.44793945399 -0.38257643591 0.0
0.47657520735 -0.34625215593 0.0
0.50227271609 -0.30779311628 0.0
0.5248735465 -0.26743642971 0.0
0.54423835696 -0.22543090862 0.0
0.56024775698 -0.18203553101 0.0
0.57280304327 -0.13751784383 0.0
0.58182680833 -0.092152313402 0.0
0.58726341763 -0.046218633323 0.0
0.64501455722 0.0 0.0
0.6430261926 0.050607258891 0.0
0.63707335768 0.1009025072 0.0
0.62719275366 0.150575658 0.0
0.61344529775 0.1993204598 0.0
0.59591574759 0.24683638468 0.0
0.57471217868 0.29283048117 0.0
0.54996531808 0.33701918037 0.0
0.52182773841 0.37913004425 0.0
0.49047291721 0.41890344533 0.0
0.45609416737 0.45609416737 0.0
0.41890344533 0.49047291721 0.0
0.37913004425 0.52182773841 0.0
0.33701918037 0.54996531808 0.0
0.29283048117 0.57471217868 0.0
0.24683638468 0.59591574759 0.0
0.1993204598 0.61344529775 0.0
0.150575658 0.62719275366 0.0
0.1009025072 0.63707335768 0.0
0.050607258891 0.6430261926 0.0
5.0350243173e-17 0.64501455722 0.0
-0.050607258891 0.6430261926 0.0
-0.1009025072 0.63707335768 0.0
-0.150575658 0.62719275366 0.0
-0.1993204598 0.61344529775 0.0
-0.24683638468 0.59591574759 0.0
-0.29283048117 0.57471217868 0.0
-0.33701918037 0.54996531808 0.0
-0.37913004425 0.52182773841 0.0
-0.41890344533 0.49047291721 0.0
-0.45609416737 0.45609416737 0.0
-0.49047291721 0.41890344533 0.0
-0.52182773841 0.37913004425 0.0
-0.54996531808 0.33701918037 0.0
-0.57471217868 0.29283048117 0.0
-0.59591574759 0.24683638468 0.0
-0.61344529775 0.1993204598 0.0
-0.62719275366 0.150575658 0.0
-0.63707335768 0.1009025072 0.0
-0.6430261926 0.050607258891 0.0
-0.64501455722 7.8988106468e-17 0.0
-0.6430261926 -0.050607258891 0.0
-0.63707335768 -0.1009025072 0.0
-0.62719275366 -0.150575658 0.0
-0.61344529775 -0.1993204598 0.0
-0.59591574759 -0.24683638468 0.0
-0.57471217868 -0.29283048117 0.0
-0.54996531808 -0.33701918037 0.0
-0.52182773841 -0.37913004425 0.0
-0.49047291721 -0.41890344533 0.0
-0.45609416737 -0.45609416737 0.0
-0.41890344533 -0.49047291721 0.0
-0.37913004425 -0.52182773841 0.0
-0.33701918037 -0.54996531808 0.0
-0.29283048117 -0.57471217868 0.0
-0.24683638468 -0.59591574759 0.0
-0.1993204598 -0.61344529775 0.0
-0.150575658 -0.62719275366 0.0
-0.1009025072 -0.63707335768 0.0
-0.050607258891 -0.6430261926 0.0
-9.2865418028e-17 -0.64501455722 0.0
0.050607258891 -0.6430261926 0.0
[...]
POINT_DATA  3200
FIELD  FlowField  4
Density    1 3200  double
0.06100080654418712
0.7328693648803095
0.655316448527806
0.6412466212562251
0.6230981639771501
0.615825333638233
0.6307229629174949
0.6513021729732815
0.6781864401385833
0.7104917378939234
0.7474460708319041
0.7882044978794099
0.8309061386272842
0.8787696669553775
0.9327428279882113
0.9965318213132923
1.0681768750815435
1.1453878552144627
1.2188173085139244
1.3395858817199273
2.7151227632019417
1.2559697194357597
1.296420278952115
1.3543139976914764
1.403086307791125
1.4394395440360641
1.4612450849775724
1.4806226771052917
1.509734476713679
1.5599073894294715
1.5956267058117881
1.6359039232425763
1.6583525441431686
1.6872597656788226
1.7113327731191832
1.734237231495415
1.755822387523574
1.7859151453438422
1.789316496897968
1.768546950579036
0.7972111390792462
1.7685469505790423
1.7893164968979676
1.7859151453438433
1.7558223875235723
1.7342372314954133
1.7113327731191799
1.6872597656788195
1.6583525441431675
1.6359039232425778
1.5956267058117901
1.5599073894294742
1.5097344767136778
1.4806226771052857
1.4612450849775718
1.439439544036067
1.4030863077911233
1.3543139976914798
1.2964202789521178
1.255969719435774
2.715122763201936
1.339585881719938
1.2188173085139353
1.1453878552144705
1.0681768750815523
0.9965318213133032
0.9327428279882091
0.8787696669553776
0.8309061386272781
0.7882044978794159
0.7474460708319114
0.710491737893933
0.6781864401385884
0.6513021729732918
0.630722962917493
0.6158253336382367
0.6230981639771533
0.6412466212562247
0.6553164485278044
0.732869364880309
4.114394402888274
5.559303586160704
5.814091502179071
5.8569275918221475
5.860441519303197
5.888951660170839
5.940456027810311
5.996011932153423
6.055856804393676
6.117370392323583
6.180952827962145
6.246857115699626
6.315158459030645
6.3895194243093085
6.474557123421338
6.571397489252554
6.682998631281075
6.814746762679993
7.044480780806655
7.775276337422855
9.139027451710563
7.183499292323065
7.076549038691242
7.128455558515169
7.205137173997127
7.284559217491664
7.364613871737053
7.433050323719142
7.501883009792898
7.584792955773729
7.667189635876345
7.72786981730498
7.788299915332383
7.840911709288527
7.889697559985966
7.927933811741488
7.9520761780092215
7.951346242723073
7.866303134592259
7.267356204884528
6.0236162221510074
7.267356204884535
7.866303134592259
7.951346242723073
7.95207617800922
7.92793381174148
7.889697559985959
7.8409117092885285
7.788299915332385
7.7278698173049785
7.667189635876345
7.584792955773725
7.501883009792895
7.433050323719135
7.364613871737051
7.2845592174916645
7.205137173997126
7.12845555851517
7.0765490386912475
7.183499292323091
9.139027451710636
7.775276337422886
7.044480780806667
6.814746762680002
6.682998631281084
6.571397489252561
6.4745571234213335
6.3895194243093085
6.315158459030642
6.246857115699627
6.180952827962155
6.117370392323594
6.055856804393691
5.996011932153438
5.940456027810316
5.888951660170839
5.860441519303199
5.856927591822148
5.814091502179066
5.559303586160699
7.722338314235792
7.769598723086704
8.006663295545057
8.070094996120352
8.101037560478947
8.11829836265245
8.121892524264785
8.123094888893805
8.125010138759942
8.126771358088904
8.127721819024938
8.126896388040715
8.120439125709176
8.11005401421102
8.092156141023292
8.065851028854311
8.039447358431026
8.025049665344369
8.15366284692975
8.22703737708181
7.486250957790032
8.402407779436421
8.291456051597386
8.2646120429065
8.241433911399302
8.23373972130278
8.253148636804365
8.288828021580501
8.313474036622912
8.322182238580485
8.313051112118687
8.286798181662041
8.255684063900745
8.2422394172224
8.224892298680945
8.210843140985256
8.198350010402192
8.167256106707192
8.07577491779286
7.844397068709988
7.91022883253166
7.844397068709988
8.075774917792861
8.167256106707194
8.198350010402194
8.210843140985254
8.22489229868095
8.242239417222407
8.255684063900743
8.286798181662038
8.313051112118682
8.322182238580485
8.313474036622914
8.288828021580498
8.253148636804365
8.233739721302781
8.241433911399296
8.264612042906498
8.291456051597374
8.402407779436487
7.486250957790069
8.22703737708182
8.153662846929747
8.025049665344358
8.039447358431023
8.065851028854304
8.092156141023278
8.110054014211022
8.120439125709185
8.126896388040716
8.127721819024929
8.126771358088895
8.125010138759935
8.123094888893801
8.121892524264776
8.118298362652446
8.101037560478941
8.07009499612035
8.006663295545055
7.7695987230867
6.412731977429054
6.314181029919604
6.3417237696763165
6.3549579552258955
6.3625826183232626
6.362020134553878
6.358219868904532
6.354674010678493
6.3520901910062815
6.35049884052451
6.349587065365107
6.348431226535459
6.346302792987242
6.344506316434891
6.339759853175703
6.329380721760634
6.310831957033068
6.284516744586868
6.287729784305901
6.241053413153378
6.113697771303507
6.3094504543823104
6.333488041984174
6.337072276090811
6.330696868879254
6.322361106896777
6.315458748548834
6.311533574766138
6.306091381175606
6.29717079601619
6.2875522902507495
6.276061366026364
6.260006536087614
6.251536945817646
6.2437231468868495
6.236816977687955
6.231727877991659
6.228752650374673
6.221913449952164
6.195634918835397
6.289460414677156
6.195634918835397
6.221913449952163
6.228752650374673
6.231727877991659
6.2368169776879565
6.24372314688685
6.251536945817649
6.260006536087613
6.276061366026363
6.2875522902507495
6.297170796016189
6.306091381175606
6.3115335747661385
6.315458748548835
6.322361106896775
6.330696868879254
6.337072276090813
6.333488041984166
6.309450454382314
6.113697771303508
6.2410534131533755
6.287729784305896
6.284516744586864
6.310831957033068
6.329380721760632
6.3397598531757025
6.344506316434892
6.3463027929872435
6.348431226535462
6.349587065365102
6.350498840524506
6.352090191006276
6.354674010678493
6.358219868904529
6.362020134553876
6.36258261832326
6.354957955225895
6.341723769676316
6.314181029919605
5.992307774332125
5.98731617499231
5.989020454763337
5.9886905192214455
5.988265810294974
5.987803003950756
5.987356507666781
5.986891702500185
5.986447255436345
5.986105842520648
5.985826476031605
5.985514233889518
5.985193090317793
5.98490358208072
5.984567784898213
5.984096957818711
5.983455238982389
5.983262162410705
5.982342717758238
5.985014161667956
5.987323199631496
5.985984287232942
5.983907781366248
5.983201123518331
5.982636073973734
5.982023856928392
5.981398179085588
5.980897184485137
5.980480910261185
5.9801212207657795
5.9798690936953145
5.979740806944937
5.979621576417724
5.97960245343564
5.979693094460217
5.979765619706878
5.979823547615264
5.979947166858536
5.980219182197354
5.979009253096807
5.973152799929613
5.979009253096807
5.980219182197354
5.979947166858536
5.979823547615264
5.979765619706878
5.979693094460218
5.97960245343564
5.979621576417724
5.979740806944937
5.979869093695314
5.9801212207657795
5.980480910261186
5.980897184485138
5.981398179085588
5.982023856928392
5.982636073973735
5.983201123518331
5.983907781366247
5.9859842872329425
5.987323199631497
5.985014161667957
5.982342717758238
5.983262162410703
5.983455238982389
5.984096957818711
5.984567784898212
5.98490358208072
5.985193090317793
5.985514233889519
5.985826476031605
5.986105842520647
5.986447255436344
5.986891702500185
5.987356507666782
5.987803003950756
5.988265810294974
5.988690519221446
5.989020454763338
5.98731617499231
5.986019695442225
5.991800121110851
5.992004176110501
5.991907654943243
5.991935962622351
5.992018708651445
5.992111565515275
5.99220488190944
5.992301899501287
5.992410000466623
5.992532311155202
5.992670416492358
5.992814635062006
5.992987668829609
5.993226163283158
5.993567196795777
5.9940065816255395
5.994390749813219
5.995519133421432
5.9975328738369
5.9995505510817235
5.996586886493653
5.9944009618616265
5.994169936263222
5.994340226709387
5.994606556120036
5.9948857049571975
5.995158726375587
5.995417105985827
5.995676482464611
5.9959282098975235
5.996165393286687
5.996406984080688
5.996646227405794
5.99682390336571
5.996983791990019
5.997125703930243
5.99724036157771
5.997354225624438
5.997460414941638
5.994870534564049
5.997460414941639
5.997354225624438
5.99724036157771
5.997125703930241
5.996983791990018
5.99682390336571
5.996646227405793
5.9964069840806875
5.996165393286688
5.995928209897524
5.99567648246461
5.995417105985826
5.995158726375586
5.994885704957198
5.994606556120036
5.994340226709386
5.994169936263221
5.994400961861627
5.996586886493655
5.9995505510817235
5.9975328738369
5.995519133421433
5.9943907498132205
5.9940065816255395
5.9935671967957775
5.993226163283158
5.992987668829609
5.992814635062004
5.992670416492358
5.992532311155202
5.992410000466622
5.992301899501286
5.99220488190944
5.992111565515277
5.992018708651446
5.991935962622352
5.991907654943243
5.992004176110502
5.991800121110851
6.000135196591156
6.000258699493806
6.000197507242874
6.0002009269531635
6.000214272169165
6.000227214627424
6.000240249386616
6.00025195016336
6.000259722386456
6.000264097318607
6.000267898087387
6.000272168132028
6.0002763946900695
6.000280688741807
6.000285780476927
6.000291276821299
6.000288293164392
6.000282157847252
6.000250355745349
6.00017748553708
6.0000842436636805
6.000198992877273
6.000241480005835
6.00027618444315
6.000286602291809
6.000289521874765
6.000288855091593
6.000287243809192
6.000284267803045
6.000280783536374
6.000276673794964
6.000271418677474
6.00026522962896
6.000258783424746
6.000251267646215
6.000244107775948
6.000237980610358
6.00023224142463
6.000227556768134
6.000251560646444
6.000415061206594
6.000251560646445
6.000227556768133
6.000232241424632
6.0002379806103585
6.0002441077759485
6.000251267646215
6.000258783424745
6.000265229628959
6.000271418677473
6.000276673794962
6.000280783536372
6.0002842678030435
6.000287243809192
6.0002888550915925
6.000289521874765
6.00028660229181
6.000276184443149
6.000241480005835
6.000198992877272
6.0000842436636805
6.000177485537081
6.000250355745349
6.000282157847252
6.0002882931643935
6.000291276821299
6.000285780476927
6.000280688741807
6.00027639469007
6.000272168132028
6.000267898087388
6.000264097318606
6.000259722386456
6.00025195016336
6.000240249386616
6.000227214627424
6.000214272169164
6.0002009269531635
6.000197507242874
6.000258699493805
6.000194303241112
6.00009358312377
6.000089230497885
6.00008903434863
6.000087475233255
6.000085572604854
6.000083564362585
6.000081427067601
6.000079080704377
6.0000765246057
6.000073797856124
6.000070949673369
6.000067854821803
6.00006425291006
6.000059868220045
6.000054644147645
6.000048550465916
6.000036475149102
6.000017713832506
6.000003005328235
5.9999978091432995
6.000006690121095
6.0000281872395504
6.0000432113702065
6.0000433371454065
6.0000403583528
6.000036887114799
6.000033561135716
6.000030449053556
6.000027599892187
6.000024978843597
6.000022652308729
6.0000205920068215
6.000018684074708
6.000016978833777
6.000015687200404
6.000014586172182
6.00001363701021
6.0000125700294875
6.000011187516354
6.000028405614756
6.000011187516354
6.0000125700294875
6.000013637010211
6.000014586172181
6.0000156872004045
6.000016978833776
6.000018684074708
6.0000205920068215
6.00002265230873
6.000024978843597
6.000027599892187
6.000030449053556
6.000033561135715
6.000036887114798
6.000040358352799
6.000043337145406
6.0000432113702065
6.0000281872395504
6.000006690121095
5.9999978091432995
6.000003005328236
6.000017713832506
6.0000364751491
6.000048550465916
6.000054644147645
6.000059868220045
6.00006425291006
6.000067854821802
6.000070949673369
6.000073797856123
6.0000765246057
6.000079080704377
6.0000814270676015
6.000083564362585
6.000085572604854
6.000087475233254
6.000089034348629
6.000089230497885
6.00009358312377
5.999993828075434
5.999995801440742
5.99999650537129
5.999996474318922
5.999996385966265
5.999996312599011
5.999996264612232
5.999996270531678
5.999996326544342
5.99999640148011
5.999996476727717
5.9999965523356575
5.999996632678957
5.99999672150742
5.999996830735187
5.999997013804322
5.999997293998597
5.999997846604123
5.999998647021887
5.999999412442148
5.999999893088335
5.999999185402711
5.999998325860907
5.999997791671079
5.999997499148231
5.999997519742626
5.999997614352367
5.999997733487654
5.9999978528201146
5.999997969121563
5.9999980774515365
5.9999981790563215
5.999998276649044
5.999998371465004
5.999998462756436
5.999998550142225
5.999998625064878
5.999998690417261
5.999998749917878
5.999998678669559
5.999997422390829
5.9999986786695585
5.999998749917877
5.999998690417261
5.999998625064877
5.999998550142225
5.999998462756436
5.999998371465003
5.999998276649044
5.9999981790563215
5.9999980774515365
5.999997969121564
5.999997852820114
5.999997733487654
5.999997614352367
5.999997519742626
5.999997499148231
5.99999779167108
5.999998325860907
5.999999185402711
5.999999893088335
5.999999412442148
5.999998647021888
5.999997846604124
5.999997293998596
5.9999970138043235
5.999996830735187
5.99999672150742
5.999996632678957
5.9999965523356575
5.999996476727717
5.99999640148011
5.999996326544342
5.999996270531678
5.999996264612232
5.99999631259901
5.999996385966264
5.999996474318923
5.999996505371289
5.999995801440742
5.99999892359448
5.99999954350014
5.999999551451319
5.999999557745166
5.999999572770214
5.999999589120948
5.9999996056781795
5.99999962265189
5.999999640233581
5.9999996584646
5.999999677364814
5.999999697359238
5.999999719330038
5.999999744402085
5.999999772970056
5.999999806890804
5.999999866902617
5.999999948423159
6.0000000044049395
6.000000015191407
6.000000007371838
6.000000016777227
5.999999986381124
5.999999910224221
5.99999985828328
5.999999862773728
5.99999987838712
5.999999894246214
5.999999908459806
5.99999992104599
5.999999932000288
5.999999941528915
5.99999994950106
5.999999956119111
5.9999999618019055
5.999999966495308
5.999999969793198
5.999999972449519
5.999999975515596
5.999999982308584
5.999999947423199
5.999999982308584
5.999999975515596
5.999999972449519
5.999999969793198
5.999999966495307
5.999999961801906
5.999999956119112
5.999999949501059
5.999999941528916
5.999999932000289
5.99999992104599
5.999999908459806
5.999999894246214
5.99999987838712
5.999999862773728
5.999999858283281
5.999999910224222
5.999999986381125
6.000000016777227
6.000000007371838
6.000000015191407
6.000000004404939
5.999999948423159
5.999999866902617
5.999999806890804
5.999999772970057
5.999999744402084
5.999999719330038
5.999999697359238
5.999999677364815
5.999999658464599
5.99999964023358
5.99999962265189
5.9999996056781795
5.999999589120948
5.999999572770214
5.999999557745166
5.999999551451319
5.99999954350014
6.000000051980715
6.000000026728959
6.000000023889237
6.00000002397099
6.000000023991647
6.000000023791262
6.000000023266614
6.000000022445234
6.000000021497834
6.000000020538401
6.000000019581085
6.000000018598872
6.000000017552896
6.000000016370844
6.000000014842585
6.000000012738861
6.000000009272987
6.00000000514059
6.000000001874958
6.000000000275592
5.9999999998857145
6.000000000537983
6.000000003089153
6.000000006491109
6.000000008950426
6.000000009952741
6.000000009475146
6.000000008735926
6.000000007962886
6.000000007245713
6.000000006598267
6.000000006028247
6.000000005526279
6.0000000050793725
6.000000004673514
6.000000004302406
6.000000003972001
6.0000000036979815
6.000000003447468
6.000000003410561
6.000000007075199
6.000000003410561
6.000000003447469
6.0000000036979815
6.000000003972001
6.000000004302407
6.000000004673512
6.0000000050793725
6.000000005526279
6.000000006028247
6.000000006598267
6.000000007245713
6.0000000079628855
6.000000008735926
6.000000009475146
6.000000009952741
6.000000008950426
6.000000006491108
6.000000003089153
6.000000000537983
5.9999999998857145
6.000000000275591
6.000000001874957
6.00000000514059
6.000000009272987
6.000000012738861
6.000000014842585
6.000000016370844
6.000000017552896
6.000000018598872
6.000000019581086
6.000000020538401
6.000000021497834
6.000000022445234
6.000000023266615
6.000000023791262
6.000000023991646
6.00000002397099
6.000000023889237
6.000000026728958
6.0000000025713645
6.00000000101718
6.000000001046045
6.000000001007431
6.000000000948808
6.000000000893356
6.000000000842223
6.000000000793049
6.000000000743423
6.000000000691859
6.0000000006373
6.000000000578348
6.000000000512914
6.000000000440381
6.000000000356161
6.0000000002111475
6.000000000032458
5.9999999999370885
5.999999999944786
5.999999999978325
5.99999999999718
5.999999999968644
5.999999999929077
5.999999999964422
6.000000000098965
6.000000000197183
6.0000000001836735
6.000000000151508
6.000000000122182
6.000000000097661
6.000000000077216
6.000000000060366
6.000000000046428
6.000000000035523
6.000000000027295
6.000000000020957
6.000000000016392
6.000000000014049
6.00000000001157
6.000000000000512
6.000000000018441
6.000000000000512
6.000000000011569
6.000000000014049
6.000000000016392
6.000000000020957
6.0000000000272955
6.000000000035524
6.000000000046428
6.000000000060366
6.000000000077216
6.0000000000976605
6.000000000122181
6.000000000151508
6.0000000001836735
6.000000000197184
6.000000000098965
5.999999999964422
5.999999999929076
5.999999999968643
5.99999999999718
5.999999999978325
5.9999999999447855
5.9999999999370885
6.000000000032457
6.000000000211148
6.000000000356162
6.00000000044038
6.000000000512915
6.000000000578348
6.000000000637299
6.000000000691859
6.000000000743424
6.000000000793048
6.000000000842222
6.000000000893356
6.000000000948808
6.000000001007431
6.000000001046045
6.00000000101718
5.999999999828813
5.999999999919762
5.999999999924708
5.999999999925322
5.999999999926878
5.999999999929484
5.999999999932955
5.999999999936777
5.999999999940625
5.999999999944442
5.999999999948297
5.9999999999523075
5.999999999956667
5.999999999961859
5.999999999968587
5.999999999978737
5.999999999989537
5.999999999996907
5.999999999999885
6.000000000000295
6.000000000000103
6.000000000000386
5.999999999999261
5.999999999994579
5.9999999999876845
5.999999999982377
5.999999999980644
5.999999999982201
5.999999999984163
5.999999999986057
5.999999999987731
5.999999999989177
5.999999999990399
5.99999999999143
5.999999999992304
5.999999999993066
5.999999999993736
5.999999999994305
5.99999999999479
5.999999999995089
5.999999999989858
5.999999999995089
5.999999999994791
5.999999999994306
5.999999999993735
5.999999999993065
5.999999999992305
5.99999999999143
5.999999999990398
5.9999999999891775
5.999999999987731
5.999999999986058
5.999999999984163
5.999999999982202
5.999999999980644
5.999999999982377
5.999999999987683
5.999999999994579
5.999999999999261
6.0000000000003855
6.000000000000103
6.000000000000295
5.999999999999885
5.999999999996907
5.999999999989537
5.999999999978737
5.999999999968587
5.999999999961859
5.9999999999566676
5.9999999999523075
5.999999999948297
5.999999999944443
5.999999999940625
5.999999999936777
5.999999999932955
5.999999999929485
5.999999999926879
5.999999999925321
5.999999999924708
5.999999999919762
5.999999999997307
5.999999999998984
5.999999999998897
5.99999999999899
5.999999999999073
5.99999999999914
5.9999999999992015
5.999999999999265
5.999999999999332
5.9999999999994005
5.9999999999994715
5.999999999999548
5.999999999999626
5.999999999999705
5.999999999999851
6.000000000000016
6.000000000000121
6.000000000000067
6.0000000000000036
6.0
6.0
6.0
6.0000000000000275
6.0000000000000915
6.000000000000076
5.9999999999999485
5.999999999999842
5.999999999999853
5.999999999999876
5.999999999999892
5.999999999999904
5.999999999999921
5.99999999999994
5.999999999999952
5.999999999999963
5.99999999999997
5.999999999999977
5.9999999999999805
5.999999999999983
5.999999999999986
5.999999999999993
5.999999999999986
5.999999999999983
5.9999999999999805
5.999999999999977
5.99999999999997
5.999999999999963
5.999999999999952
5.99999999999994
5.999999999999921
5.999999999999905
5.999999999999892
5.999999999999876
5.999999999999853
5.999999999999842
5.9999999999999485
6.000000000000076
6.000000000000091
6.0000000000000275
6.0
6.0
6.0
6.0000000000000036
6.000000000000067
6.000000000000121
6.000000000000016
5.999999999999851
5.999999999999705