# vtk DataFile Version 3.0 
cylinder.vtk
ASCII
DATASET UNSTRUCTURED_GRID
POINTS         3200 double
0.5 0.0 0.0
0.49845866687 0.039229547864 0.0
0.4938441703 0.07821723252 0.0
0.4861849602 0.11672268193 0.0
0.47552825815 0.15450849719 0.0
0.46193976626 0.19134171618 0.0
0.44550326209 0.22699524987 0.0
0.42632008218 0.26124928236 0.0
0.40450849719 0.29389262615 0.0
0.3802029828 0.32472402417 0.0
0.35355339059 0.35355339059 0.0
0.32472402417 0.3802029828 0.0
0.29389262615 0.40450849719 0.0
0.26124928236 0.42632008218 0.0
0.22699524987 0.44550326209 0.0
0.19134171618 0.46193976626 0.0
0.15450849719 0.47552825815 0.0
0.11672268193 0.4861849602 0.0
0.07821723252 0.4938441703 0.0
0.039229547864 0.49845866687 0.0
0.0 0.5 0.0
-0.039229547864 0.49845866687 0.0
-0.07821723252 0.4938441703 0.0
-0.11672268193 0.4861849602 0.0
-0.15450849719 0.47552825815 0.0
-0.19134171618 0.46193976626 0.0
-0.22699524987 0.44550326209 0.0
-0.26124928236 0.42632008218 0.0
-0.29389262615 0.40450849719 0.0
-0.32472402417 0.3802029828 0.0
-0.35355339059 0.35355339059 0.0
-0.3802029828 0.32472402417 0.0
-0.40450849719 0.29389262615 0.0
-0.42632008218 0.26124928236 0.0
-0.44550326209 0.22699524987 0.0
-0.46193976626 0.19134171618 0.0
-0.47552825815 0.15450849719 0.0
-0.4861849602 0.11672268193 0.0
-0.4938441703 0.07821723252 0.0
-0.49845866687 0.039229547864 0.0
-0.5 6.1232339957e-17 0.0
-0.49845866687 -0.039229547864 0.0
-0.4938441703 -0.07821723252 0.0
-0.4861849602 -0.11672268193 0.0
-0.47552825815 -0.15450849719 0.0
-0.46193976626 -0.19134171618 0.0
-0.44550326209 -0.22699524987 0.0
-0.42632008218 -0.26124928236 0.0
-0.40450849719 -0.29389262615 0.0
-0.3802029828 -0.32472402417 0.0
-0.35355339059 -0.35355339059 0.0
-0.32472402417 -0.3802029828 0.0
-0.29389262615 -0.40450849719 0.0
-0.26124928236 -0.42632008218 0.0
-0.22699524987 -0.44550326209 0.0
-0.19134171618 -0.46193976626 0.0
-0.15450849719 -0.47552825815 0.0
-0.11672268193 -0.4861849602 0.0
-0.07821723252 -0.4938441703 0.0
-0.039229547864 -0.49845866687 0.0
-1.1102230246e-16 -0.5 0.0
0.039229547864 -0.49845866687 0.0
0.07821723252 -0.4938441703 0.0
0.11672268193 -0.4861849602 0.0
0.15450849719 -0.47552825815 0.0
0.19134171618 -0.46193976626 0.0
0.22699524987 -0.44550326209 0.0
0.26124928236 -0.42632008218 0.0
0.29389262615 -0.40450849719 0.0
0.32472402417 -0.3802029828 0.0
0.35355339059 -0.35355339059 0.0
0.3802029828 -0.32472402417 0.0
0.40450849719 -0.29389262615 0.0
0.42632008218 -0.26124928236 0.0
0.44550326209 -0.22699524987 0.0
0.46193976626 -0.19134171618 0.0
0.47552825815 -0.15450849719 0.0
0.4861849602 -0.11672268193 0.0
0.4938441703 -0.07821723252 0.0
0.49845866687 -0.039229547864 0.0
0.54112028908 0.0 0.0
0.53945219582 0.042455808562 0.0
0.53445820039 0.084649862945 0.0
0.52616909242 0.12632202278 0.0
0.51463597703 0.16721536533 0.0
0.49992995971 0.20707776955 0.0
0.48214170795 0.24566347046 0.0
0.46138089222 0.28273457439 0.0
0.43777550987 0.31806252564 0.0
0.41147109593 0.35142951566 0.0
0.38262982585 0.38262982585 0.0
0.35142951566 0.41147109593 0.0
0.31806252564 0.43777550987 0.0
0.28273457439 0.46138089222 0.0
0.24566347046 0.48214170795 0.0
0.20707776955 0.49992995971 0.0
0.16721536533 0.51463597703 0.0
0.12632202278 0.52616909242 0.0
0.084649862945 0.53445820039 0.0
0.042455808562 0.53945219582 0.0
2.1554436839e-17 0.54112028908 0.0
-0.042455808562 0.53945219582 0.0
-0.084649862945 0.53445820039 0.0
-0.12632202278 0.52616909242 0.0
-0.16721536533 0.51463597703 0.0
-0.20707776955 0.49992995971 0.0
-0.24566347046 0.48214170795 0.0
-0.28273457439 0.46138089222 0.0
-0.31806252564 0.43777550987 0.0
-0.35142951566 0.41147109593 0.0
-0.38262982585 0.38262982585 0.0
-0.41147109593 0.35142951566 0.0
-0.43777550987 0.31806252564 0.0
-0.46138089222 0.28273457439 0.0
-0.48214170795 0.24566347046 0.0
-0.49992995971 0.20707776955 0.0
-0.51463597703 0.16721536533 0.0
-0.52616909242 0.12632202278 0.0
-0.53445820039 0.084649862945 0.0
-0.53945219582 0.042455808562 0.0
-0.54112028908 6.6270995905e-17 0.0
-0.53945219582 -0.042455808562 0.0
-0.53445820039 -0.084649862945 0.0
-0.52616909242 -0.12632202278 0.0
-0.51463597703 -0.16721536533 0.0
-0.49992995971 -0.20707776955 0.0
-0.48214170795 -0.24566347046 0.0
-0.46138089222 -0.28273457439 0.0
-0.43777550987 -0.31806252564 0.0
-0.41147109593 -0.35142951566 0.0
-0.38262982585 -0.38262982585 0.0
-0.35142951566 -0.41147109593 0.0
-0.31806252564 -0.43777550987 0.0
-0.28273457439 -0.46138089222 0.0
-0.24566347046 -0.48214170795 0.0
-0.20707776955 -0.49992995971 0.0
-0.16721536533 -0.51463597703 0.0
-0.12632202278 -0.52616909242 0.0
-0.084649862945 -0.53445820039 0.0
-0.042455808562 -0.53945219582 0.0
-1.5867890874e-16 -0.54112028908 0.0
0.042455808562 -0.53945219582 0.0
0.084649862945 -0.53445820039 0.0
0.12632202278 -0.52616909242 0.0
0.16721536533 -0.51463597703 0.0
0.20707776955 -0.49992995971 0.0
0.24566347046 -0.48214170795 0.0
0.28273457439 -0.46138089222 0.0
0.31806252564 -0.43777550987 0.0
0.35142951566 -0.41147109593 0.0
0.38262982585 -0.38262982585 0.0
0.41147109593 -0.35142951566 0.0
0.43777550987 -0.31806252564 0.0
0.46138089222 -0.28273457439 0.0
0.48214170795 -0.24566347046 0.0
0.49992995971 -0.20707776955 0.0
0.51463597703 -0.16721536533 0.0
0.52616909242 -0.12632202278 0.0
0.53445820039 -0.084649862945 0.0
0.53945219582 -0.042455808562 0.0
0.58907935268 0.0 0.0
0.58726341763 0.046218633323 0.0
0.58182680833 0.092152313402 0.0
0.57280304327 0.13751784383 0.0
0.56024775698 0.18203553101 0.0
0.54423835696 0.22543090862 0.0
0.5248735465 0.26743642971 0.0
0.50227271609 0.30779311628 0.0
0.47657520735 0.34625215593 0.0
0.44793945399 0.38257643591 0.0
0.41654200494 0.41654200494 0.0
0.38257643591 0.44793945399 0.0
0.34625215593 0.47657520735 0.0
0.30779311628 0.50227271609 0.0
0.26743642971 0.5248735465 0.0
0.22543090862 0.54423835696 0.0
0.18203553101 0.56024775698 0.0
0.13751784383 0.57280304327 0.0
0.092152313402 0.58182680833 0.0
0.046218633323 0.58726341763 0.0
1.7962142108e-17 0.58907935268 0.0
-0.046218633323 0.58726341763 0.0
-0.092152313402 0.58182680833 0.0
-0.13751784383 0.57280304327 0.0
-0.18203553101 0.56024775698 0.0
-0.22543090862 0.54423835696 0.0
-0.26743642971 0.5248735465 0.0
-0.30779311628 0.50227271609 0.0
-0.34625215593 0.47657520735 0.0
-0.38257643591 0.44793945399 0.0
-0.41654200494 0.41654200494 0.0
-0.44793945399 0.38257643591 0.0
-0.47657520735 0.34625215593 0.0
-0.50227271609 0.30779311628 0.0
-0.5248735465 0.26743642971 0.0
-0.54423835696 0.22543090862 0.0
-0.56024775698 0.18203553101 0.0
-0.57280304327 0.13751784383 0.0
-0.58182680833 0.092152313402 0.0
-0.58726341763 0.046218633323 0.0
-0.58907935268 7.2162904324e-17 0.0
-0.58726341763 -0.046218633323 0.0
-0.58182680833 -0.092152313402 0.0
-0.57280304327 -0.13751784383 0.0
-0.56024775698 -0.18203553101 0.0
-0.54423835696 -0.22543090862 0.0
-0.5248735465 -0.26743642971 0.0
-0.50227271609 -0.30779311628 0.0
-0.47657520735 -0.34625215593 0.0
-0.44793945399 -0.38257643591 0.0
-0.41654200494 -0.41654200494 0.0
-0.38257643591 -0.44793945399 0.0
-0.34625215593 -0.47657520735 0.0
-0.30779311628 -0.50227271609 0.0
-0.26743642971 -0.5248735465 0.0
-0.22543090862 -0.54423835696 0.0
-0.18203553101 -0.56024775698 0.0
-0.13751784383 -0.57280304327 0.0
-0.092152313402 -0.58182680833 0.0
-0.046218633323 -0.58726341763 0.0
-1.1283785308e-16 -0.58907935268 0.0
0.046218633323 -0.58726341763 0.0
0.092152313402 -0.58182680833 0.0
0.13751784383 -0.57280304327 0.0
0.18203553101 -0.56024775698 0.0
0.22543090862 -0.54423835696 0.0
0.26743642971 -0.5248735465 0.0
0.30779311628 -0.50227271609 0.0
0.34625215593 -0.47657520735 0.0
0.38257643591 -0.44793945399 0.0
0.41654200494 -0.41654200494 0.0
0.44793945399 -0.38257643591 0.0
0.47657520735 -0.34625215593 0.0
0.50227271609 -0.30779311628 0.0
0.5248735465 -0.26743642971 0.0
0.54423835696 -0.22543090862 0.0
0.56024775698 -0.18203553101 0.0
0.57280304327 -0.13751784383 0.0
0.58182680833 -0.092152313402 0.0
0.58726341763 -0.046218633323 0.0
0.64501455722 0.0 0.0
0.6430261926 0.050607258891 0.0
0.63707335768 0.1009025072 0.0
0.62719275366 0.150575658 0.0
0.61344529775 0.1993204598 0.0
0.59591574759 0.24683638468 0.0
0.57471217868 0.29283048117 0.0
0.54996531808 0.33701918037 0.0
0.52182773841 0.37913004425 0.0
0.49047291721 0.41890344533 0.0
0.45609416737 0.45609416737 0.0
0.41890344533 0.49047291721 0.0
0.37913004425 0.52182773841 0.0
0.33701918037 0.54996531808 0.0
0.29283048117 0.57471217868 0.0
0.24683638468 0.59591574759 0.0
0.1993204598 0.61344529775 0.0
0.150575658 0.62719275366 0.0
0.1009025072 0.63707335768 0.0
0.050607258891 0.6430261926 0.0
5.0350243173e-17 0.64501455722 0.0
-0.050607258891 0.6430261926 0.0
-0.1009025072 0.63707335768 0.0
-0.150575658 0.62719275366 0.0
-0.1993204598 0.61344529775 0.0
-0.24683638468 0.59591574759 0.0
-0.29283048117 0.57471217868 0.0
-0.33701918037 0.54996531808 0.0
-0.37913004425 0.52182773841 0.0
-0.41890344533 0.49047291721 0.0
-0.45609416737 0.45609416737 0.0
-0.49047291721 0.41890344533 0.0
-0.52182773841 0.37913004425 0.0
-0.54996531808 0.33701918037 0.0
-0.57471217868 0.29283048117 0.0
-0.59591574759 0.24683638468 0.0
-0.61344529775 0.1993204598 0.0
-0.62719275366 0.150575658 0.0
-0.63707335768 0.1009025072 0.0
-0.6430261926 0.050607258891 0.0
-0.64501455722 7.8988106468e-17 0.0
-0.6430261926 -0.050607258891 0.0
-0.63707335768 -0.1009025072 0.0
-0.62719275366 -0.150575658 0.0
-0.61344529775 -0.1993204598 0.0
-0.59591574759 -0.24683638468 0.0
-0.57471217868 -0.29283048117 0.0
-0.54996531808 -0.33701918037 0.0
-0.52182773841 -0.37913004425 0.0
-0.49047291721 -0.41890344533 0.0
-0.45609416737 -0.45609416737 0.0
-0.41890344533 -0.49047291721 0.0
-0.37913004425 -0.52182773841 0.0
-0.33701918037 -0.54996531808 0.0
-0.29283048117 -0.57471217868 0.0
-0.24683638468 -0.59591574759 0.0
-0.1993204598 -0.61344529775 0.0
-0.150575658 -0.62719275366 0.0
-0.1009025072 -0.63707335768 0.0
-0.050607258891 -0.6430261926 0.0
-9.2865418028e-17 -0.64501455722 0.0
0.050607258891 -0.6430261926 0.0
[...]
POINT_DATA  3200
FIELD  FlowField  4
Density    1 3200  double
0.7877667187461598
0.7982994560245625
0.8011738322529626
0.8057383091330618
0.809707533038513
0.8141803607999335
0.8197184959197811
0.8263434776038588
0.8340500227053802
0.8429923536914466
0.8531290493636198
0.8641985617357947
0.8761814674710807
0.8890492272498814
0.9027024044486152
0.9170533324648392
0.9320878384204329
0.947793442656438
0.9640868622908855
0.9809354473915741
1.002747914521462
1.0240583964084482
1.0406801807230257
1.0569271127553566
1.0726377935061968
1.087720271539846
1.1021042492064148
1.115754800802157
1.1286248972300432
1.1406651147500897
1.1518233351755602
1.162030609509267
1.171201585271015
1.1792659596187414
1.1861975925770911
1.1919632388784513
1.1965985935206993
1.2008101346478042
1.2065312525972705
1.2114647455867686
1.2253382464378189
1.2114647455867686
1.2065312525972705
1.2008101346478044
1.1965985935206993
1.1919632388784513
1.1861975925770907
1.1792659596187411
1.1712015852710151
1.162030609509267
1.1518233351755605
1.1406651147500897
1.128624897230043
1.115754800802157
1.1021042492064153
1.0877202715398464
1.0726377935061968
1.0569271127553563
1.0406801807230257
1.024058396408448
1.002747914521462
0.980935447391574
0.9640868622908852
0.947793442656438
0.9320878384204331
0.9170533324648392
0.902702404448615
0.8890492272498811
0.8761814674710805
0.8641985617357947
0.8531290493636198
0.8429923536914465
0.8340500227053801
0.8263434776038588
0.8197184959197807
0.8141803607999337
0.8097075330385132
0.805738309133062
0.8011738322529626
0.7982994560245625
0.833656471341775
0.8584243538522682
0.8618958314242011
0.8652377681454987
0.8683823247184158
0.8722278635721933
0.8769104107611595
0.8823837184568922
0.8886315047465064
0.8956879692661751
0.903402207240238
0.9117050906184225
0.9205716719713646
0.9299379994334385
0.9397238761037245
0.9498676709952992
0.9603204714611314
0.9710208600745472
0.981857728526112
0.9928367988922718
1.001806731244322
1.0111281515767043
1.0214719556523477
1.0315380179275115
1.0412470802109912
1.0505522306254762
1.0594065022172081
1.0677809097379474
1.0756525682700726
1.0829984875165752
1.0897986550711876
1.0960322229605508
1.1016646344268552
1.1066591402316592
1.111004427926408
1.1147043633705658
1.1177461687824888
1.120223835647711
1.1231056874476044
1.1276778334827933
1.1618837361725771
1.127677833482793
1.1231056874476044
1.120223835647711
1.1177461687824888
1.114704363370566
1.1110044279264077
1.1066591402316592
1.1016646344268557
1.0960322229605513
1.0897986550711878
1.0829984875165752
1.0756525682700724
1.0677809097379478
1.0594065022172081
1.050552230625476
1.0412470802109912
1.0315380179275113
1.0214719556523475
1.0111281515767045
1.0018067312443217
0.9928367988922719
0.9818577285261118
0.971020860074547
0.9603204714611318
0.9498676709952992
0.9397238761037245
0.9299379994334384
0.9205716719713645
0.9117050906184224
0.903402207240238
0.8956879692661751
0.8886315047465064
0.8823837184568922
0.8769104107611595
0.8722278635721933
0.8683823247184157
0.8652377681454985
0.861895831424201
0.8584243538522681
0.9362273985291026
0.9543765615215712
0.9559419433062928
0.9570793230688253
0.9584658106568953
0.9602251981882558
0.9622967359403343
0.9646423225856225
0.9672230887133183
0.9699861700095337
0.9728974692125972
0.9759328214574655
0.9790505550239031
0.9822075560760228
0.9853585776344337
0.9884564177295264
0.9914529666368392
0.9943029790707775
0.9969576001525794
0.9992853669694203
1.0003031095992414
1.0018691583121127
1.0039258004552392
1.0059147828595092
1.0077722913140947
1.0095043370896875
1.0111086951036012
1.0125722842129412
1.0138904439123804
1.0150646827111156
1.0160995047582557
1.0170050519553286
1.0177935811254475
1.0184743586948763
1.0190566857754868
1.0195520689302542
1.0199661063631635
1.0202669708603975
1.0203890364367254
1.02079703227656
1.0352534131911706
1.0207970322765603
1.0203890364367254
1.0202669708603973
1.0199661063631635
1.0195520689302544
1.0190566857754868
1.0184743586948761
1.0177935811254473
1.0170050519553289
1.016099504758256
1.0150646827111158
1.0138904439123806
1.0125722842129414
1.0111086951036012
1.0095043370896875
1.0077722913140947
1.0059147828595092
1.0039258004552394
1.0018691583121127
1.0003031095992414
0.9992853669694203
0.9969576001525796
0.9943029790707772
0.9914529666368391
0.9884564177295267
0.9853585776344337
0.9822075560760232
0.9790505550239029
0.9759328214574654
0.9728974692125972
0.9699861700095339
0.9672230887133185
0.9646423225856228
0.9622967359403343
0.9602251981882558
0.9584658106568952
0.9570793230688253
0.9559419433062929
0.9543765615215712
0.9954163499505161
0.9988361621613194
0.9985617702108703
0.9985699634584225
0.9987576257514711
0.9989832385071472
0.9992248024397119
0.9994733286126313
0.9997145159548818
0.9999380935947938
1.0001395349706153
1.000311049840744
1.000444432160618
1.0005329163037446
1.0005712495579864
1.0005542419167417
1.000481061159576
1.0003621867836074
1.0002229428330174
1.0000809904548513
0.9999597619663424
0.9998579479410061
0.9996933290408831
0.9994901470517196
0.9992759899646577
0.9990698050406394
0.9988774633393404
0.9986992327352754
0.9985345247984186
0.9983834270090539
0.9982462509973495
0.9981233375546389
0.9980153818758132
0.9979232116777129
0.9978464840603216
0.9977832625797229
0.9977343715773062
0.9977006911465529
0.9976128789627371
0.997189295484294
0.9967020807355049
0.9971892954842941
0.9976128789627371
0.9977006911465529
0.9977343715773063
0.9977832625797229
0.9978464840603215
0.9979232116777129
0.9980153818758132
0.998123337554639
0.9982462509973495
0.9983834270090542
0.9985345247984184
0.9986992327352753
0.9988774633393405
0.9990698050406391
0.9992759899646578
0.9994901470517196
0.9996933290408831
0.9998579479410062
0.9999597619663424
1.000080990454851
1.0002229428330174
1.0003621867836077
1.000481061159576
1.0005542419167417
1.0005712495579864
1.0005329163037446
1.0004444321606183
1.000311049840744
1.000139534970615
0.9999380935947935
0.9997145159548818
0.9994733286126313
0.9992248024397119
0.9989832385071473
0.9987576257514711
0.9985699634584225
0.9985617702108702
0.9988361621613197
1.0033905497309967
1.0022495720728661
1.00198014393389
1.0019116032448443
1.001847719285997
1.0017628467190616
1.0016635858713014
1.001551977747195
1.0014295065032328
1.0012980520107495
1.0011592727594547
1.0010148809361417
1.0008669518765416
1.0007178600782745
1.0005699002984796
1.0004253476359597
1.0002871304541743
1.0001612603597312
1.0000609425400848
1.000003471312982
0.9999955168101642
0.9999637795232391
0.9998934328650622
0.9998128192081777
0.9997385664973321
0.9996753053548774
0.9996229749469775
0.9995805934136189
0.9995470769938342
0.999521245318065
0.999501969233583
0.9994880932945808
0.9994784380274141
0.999471955552131
0.9994677831604605
0.9994651454051287
0.9994635916535789
0.9994651176051347
0.9994739071880264
0.9994455094737692
0.9988800949385839
0.9994455094737694
0.9994739071880265
0.9994651176051349
0.9994635916535791
0.9994651454051288
0.9994677831604606
0.9994719555521311
0.9994784380274141
0.9994880932945808
0.999501969233583
0.999521245318065
0.999547076993834
0.9995805934136187
0.9996229749469775
0.9996753053548773
0.9997385664973323
0.9998128192081776
0.9998934328650623
0.9999637795232391
0.9999955168101643
1.0000034713129817
1.0000609425400848
1.0001612603597312
1.0002871304541745
1.00042534763596
1.0005699002984798
1.0007178600782745
1.0008669518765416
1.0010148809361417
1.0011592727594547
1.0012980520107495
1.0014295065032326
1.0015519777471953
1.0016635858713017
1.0017628467190616
1.001847719285997
1.0019116032448445
1.0019801439338898
1.0022495720728661
1.0003363195186756
1.0001029151565208
1.0001050119375317
1.0001031397727258
1.0000923474653345
1.000079828905761
1.0000669963655013
1.0000542470908882
1.0000420061350765
1.000030598357166
1.0000203368523448
1.000011548070433
1.0000044817530027
0.9999992816151922
0.999995993096023
0.9999944864450394
0.9999943603502638
0.9999951993699486
0.9999969678666883
0.9999993116200402
1.0000006977420781
1.0000024066774738
1.0000039502785678
1.0000063726750417
1.000009818810141
1.0000136863816083
1.0000175193114866
1.0000211191458235
1.0000244177916624
1.0000273835246876
1.000029999886757
1.0000322641461246
1.00003418315658
1.0000357667920612
1.0000370333740463
1.0000380215894118
1.000038731586972
1.0000390894382276
1.0000405569889927
1.0000506044708342
1.0000696851951263
1.0000506044708342
1.000040556988993
1.0000390894382278
1.0000387315869723
1.0000380215894116
1.0000370333740463
1.0000357667920612
1.0000341831565798
1.0000322641461243
1.0000299998867572
1.0000273835246876
1.0000244177916624
1.0000211191458235
1.0000175193114866
1.0000136863816083
1.000009818810141
1.0000063726750417
1.0000039502785676
1.0000024066774735
1.0000006977420783
0.9999993116200402
0.9999969678666881
0.9999951993699489
0.9999943603502638
0.9999944864450395
0.999995993096023
0.999999281615192
1.0000044817530027
1.000011548070433
1.0000203368523448
1.000030598357166
1.0000420061350765
1.0000542470908884
1.0000669963655013
1.000079828905761
1.0000923474653347
1.0001031397727258
1.0001050119375317
1.0001029151565208
0.9999114879268785
0.9999507069937611
0.9999580458019947
0.9999598117211911
0.9999617619231077
0.9999642252628541
0.9999669773630165
0.9999699450297491
0.9999730727068422
0.9999763041191652
0.9999795827805379
0.9999828491113149
0.9999860433209579
0.9999891131242711
0.9999920123603796
0.9999946804925054
0.9999970047071084
0.9999987789578411
0.9999997768648728
1.0000000488116791
0.9999999919855959
1.0000001530920426
1.000000753788865
1.0000017950446924
1.000002900302988
1.00000383285864
1.0000045421759216
1.000005049888485
1.0000053895562107
1.000005595020862
1.0000056965733348
1.0000057202056618
1.000005689178468
1.000005623803345
1.0000055404927044
1.000005452364617
1.0000053699257023
1.00000527234345
1.0000050402598202
1.0000050255470019
1.0000120734968654
1.000005025547002
1.0000050402598202
1.0000052723434503
1.0000053699257023
1.000005452364617
1.0000055404927044
1.000005623803345
1.000005689178468
1.0000057202056618
1.0000056965733346
1.000005595020862
1.0000053895562107
1.0000050498884847
1.0000045421759216
1.00000383285864
1.0000029003029882
1.0000017950446924
1.000000753788865
1.0000001530920426
0.9999999919855961
1.0000000488116791
0.9999997768648727
0.999998778957841
0.9999970047071084
0.9999946804925054
0.9999920123603796
0.9999891131242711
0.9999860433209581
0.9999828491113149
0.9999795827805379
0.999976304119165
0.9999730727068424
0.9999699450297491
0.9999669773630165
0.9999642252628541
0.9999617619231077
0.9999598117211911
0.9999580458019949
0.9999507069937611
0.9999970588752279
0.9999997524160387
0.999999459459234
0.9999994698118545
0.999999607139053
0.9999997448441583
0.9999998716121162
0.9999999850710503
1.0000000814737837
1.0000001575189954
1.00000021065303
1.0000002396894547
1.0000002450370384
1.0000002287097438
1.000000194987362
1.0000001511948036
1.0000001047056968
1.0000000589539813
1.0000000197847883
0.9999999981653899
0.9999999971918512
0.9999999812895816
0.9999999532417322
0.9999999220361683
0.9999998797712348
0.9999998304160856
0.9999997821305454
0.9999997395307668
0.9999997039256635
0.9999996751563719
0.9999996526225422
0.9999996355884333
0.9999996232396677
0.9999996147511849
0.9999996093529827
0.9999996063081172
0.9999996052389238
0.9999996073868802
0.9999996068162752
0.999999534505319
0.9999991606031359
0.999999534505319
0.9999996068162753
0.9999996073868801
0.9999996052389238
0.9999996063081172
0.9999996093529827
0.9999996147511849
0.9999996232396677
0.9999996355884332
0.9999996526225421
0.9999996751563717
0.9999997039256635
0.9999997395307667
0.9999997821305452
0.9999998304160856
0.9999998797712348
0.9999999220361683
0.9999999532417322
0.9999999812895816
0.9999999971918511
0.9999999981653899
1.0000000197847883
1.0000000589539813
1.0000001047056968
1.0000001511948036
1.000000194987362
1.0000002287097438
1.0000002450370382
1.0000002396894545
1.00000021065303
1.0000001575189954
1.0000000814737835
0.9999999850710504
0.9999998716121162
0.9999997448441587
0.999999607139053
0.9999994698118545
0.9999994594592341
0.9999997524160388
1.0000010392205663
1.0000004764504904
1.0000004168419394
1.0000003960176553
1.0000003668530042
1.0000003332997591
1.0000002979785128
1.0000002617794952
1.000000225489138
1.000000189880576
1.0000001556744815
1.0000001234951343
1.0000000938133047
1.0000000669451368
1.000000043271144
1.0000000235564857
1.0000000092277659
1.0000000015862776
0.9999999996278243
0.9999999999344018
1.000000000170116
1.0000000003600344
0.9999999992175846
0.9999999952685883
0.9999999888481425
0.9999999825567011
0.9999999778502034
0.9999999748298173
0.999999973170386
0.9999999725270247
0.9999999725982859
0.9999999731485151
0.9999999739941042
0.9999999749893478
0.9999999760218207
0.999999977007238
0.999999977871664
0.9999999786335678
0.9999999800537896
0.9999999826669527
0.9999999529670888
0.9999999826669527
0.99999998005379
0.9999999786335679
0.999999977871664
0.999999977007238
0.9999999760218207
0.9999999749893478
0.9999999739941042
0.9999999731485151
0.9999999725982859
0.9999999725270247
0.9999999731703859
0.9999999748298173
0.9999999778502034
0.9999999825567011
0.9999999888481427
0.9999999952685883
0.9999999992175849
1.0000000003600344
1.000000000170116
0.9999999999344018
0.9999999996278243
1.0000000015862776
1.0000000092277659
1.0000000235564857
1.000000043271144
1.000000066945137
1.0000000938133047
1.0000001234951343
1.0000001556744815
1.0000001898805762
1.0000002254891378
1.0000002617794952
1.0000002979785128
1.0000003332997593
1.0000003668530042
1.0000003960176551
1.0000004168419392
1.0000004764504904
0.9999999875827021
0.9999999886968577
0.9999999925270172
0.9999999927577724
0.9999999926320319
0.9999999926979175
0.9999999929100554
0.9999999932541143
0.9999999937274379
0.999999994321403
0.9999999950197639
0.9999999957994262
0.9999999966310295
0.9999999974742301
0.9999999982700333
0.9999999989552327
0.9999999994868185
0.9999999998340185
0.9999999999895065
1.0000000000110196
0.9999999999980753
1.0000000000256162
1.000000000140053
1.0000000003481604
1.0000000006137488
1.0000000009340924
1.000000001252319
1.0000000015191308
1.0000000017196287
1.0000000018584678
1.0000000019465105
1.0000000019947026
1.0000000020127884
1.0000000020092812
1.0000000019914699
1.000000001965437
1.000000001935593
1.000000001898777
1.0000000018495958
1.0000000019993485
1.000000004140625
1.0000000019993482
1.000000001849596
1.0000000018987767
1.000000001935593
1.000000001965437
1.00000000199147
1.000000002009281
1.0000000020127884
1.0000000019947024
1.0000000019465105
1.0000000018584678
1.0000000017196287
1.0000000015191308
1.000000001252319
1.0000000009340924
1.0000000006137486
1.0000000003481602
1.000000000140053
1.0000000000256164
0.9999999999980753
1.0000000000110194
0.9999999999895066
0.9999999998340187
0.9999999994868185
0.9999999989552327
0.9999999982700335
0.9999999974742302
0.9999999966310295
0.9999999957994262
0.9999999950197639
0.9999999943214029
0.999999993727438
0.9999999932541143
0.9999999929100554
0.9999999926979174
0.9999999926320319
0.9999999927577726
0.999999992527017
0.9999999886968579
0.9999999950760693
0.9999999979949604
0.9999999981482878
0.9999999982794638
0.9999999984590433
0.9999999986475018
0.9999999988357091
0.9999999990193663
0.9999999991942575
0.9999999993567735
0.9999999995042206
0.9999999996350059
0.9999999997486136
0.9999999998446873
0.9999999999213808
0.9999999999740868
0.9999999999992438
1.0000000000033051
1.0000000000007374
0.9999999999995318
0.9999999999998374
0.9999999999984973
0.9999999999963926
0.9999999999978767
1.0000000000078095
1.0000000000248754
1.0000000000404456
1.0000000000503928
1.000000000055195
1.0000000000563563
1.0000000000551565
1.0000000000525544
1.000000000049219
1.0000000000456157
1.000000000042067
1.000000000038791
1.000000000035966
1.000000000033752
1.0000000000307898
1.0000000000209515
1.0000000000638953
1.0000000000209515
1.0000000000307898
1.000000000033752
1.000000000035966
1.000000000038791
1.0000000000420672
1.0000000000456157
1.000000000049219
1.0000000000525544
1.0000000000551565
1.0000000000563563
1.0000000000551952
1.0000000000503928
1.0000000000404456
1.0000000000248752
1.0000000000078095
0.9999999999978767
0.9999999999963923
0.9999999999984973
0.9999999999998371
0.9999999999995318
1.0000000000007374
1.000000000003305
0.9999999999992438
0.9999999999740868
0.9999999999213808
0.9999999998446873
0.9999999997486136
0.9999999996350059
0.9999999995042206
0.9999999993567735
0.9999999991942575
0.9999999990193663
0.9999999988357088
0.9999999986475016
0.9999999984590433
0.999999998279464
0.9999999981482878
0.9999999979949604
1.0000000001667615
1.0000000000821838
1.0000000000673621
1.0000000000635694
1.0000000000590223
1.0000000000536575
1.0000000000478704
1.0000000000418192
1.0000000000356477
1.0000000000295064
1.0000000000235396
1.0000000000178837
1.0000000000126879
1.0000000000081586
1.0000000000045361
1.0000000000019977
1.0000000000005735
1.0000000000000375
0.9999999999999748
1.0000000000000047
1.0000000000000073
1.000000000000023
0.9999999999999541
0.9999999999996212
0.9999999999989502
0.9999999999980376
0.9999999999970016
0.9999999999960821
0.9999999999954133
0.999999999994997
0.9999999999947845
0.9999999999947201
0.9999999999947579
0.9999999999948611
0.9999999999950021
0.9999999999951584
0.9999999999953134
0.9999999999954631
0.9999999999956399
0.999999999995616
0.9999999999906005
0.9999999999956158
0.9999999999956399
0.9999999999954631
0.9999999999953134
0.9999999999951582
0.9999999999950021
0.9999999999948613
0.9999999999947579
0.9999999999947201
0.9999999999947845
0.9999999999949969
0.9999999999954131
0.9999999999960822
0.9999999999970018
0.9999999999980376
0.9999999999989501
0.9999999999996212
0.9999999999999543
1.000000000000023
1.0000000000000073
1.000000000000005
0.999999999999975
1.0000000000000375
1.0000000000005735
1.0000000000019977
1.0000000000045361
1.0000000000081586
1.0000000000126879
1.0000000000178837
1.0000000000235396
1.0000000000295064
1.0000000000356477
1.0000000000418192
1.0000000000478704
1.0000000000536575
1.0000000000590223
1.0000000000635696
1.0000000000673621
1.0000000000821838
1.000000000009875
1.0000000000038092
1.0000000000036589
1.0000000000032696
1.0000000000028118
1.0000000000023652
1.0000000000019416
1.0000000000015492
1.0000000000011966
1.0000000000008884
1.0000000000006264
1.0000000000004083
1.000000000000232
1.0000000000000975
1.0000000000000124
0.9999999999999813
0.9999999999999868
0.9999999999999973
1.0000000000000004
1.0000000000000002
1.0
1.0000000000000004
1.0000000000000042
1.0000000000000118
1.0000000000000164
1.0000000000000082
0.999999999999989
0.9999999999999725
0.999999999999964
0.9999999999999623
0.9999999999999644
0.9999999999999684
0.9999999999999732
0.9999999999999781
0.9999999999999828
0.9999999999999868
0.9999999999999902
0.9999999999999928
0.9999999999999952
1.000000000000008
0.9999999999999997
1.000000000000008
0.9999999999999951
0.9999999999999928
0.9999999999999902
0.9999999999999868
0.9999999999999828
0.9999999999999781
0.9999999999999732
0.9999999999999684
0.9999999999999645
0.9999999999999623
0.9999999999999641
0.9999999999999726
0.9999999999999893
1.0000000000000084
1.0000000000000162
1.0000000000000118
1.0000000000000042
1.0000000000000002
1.0
1.0000000000000002
1.0000000000000007
0.9999999999999973
0.9999999999999868
0.9999999999999813
1.0000000000000124
1.0000000000000977
1.000000000000232
1.0000000000004083
1.0000000000006264
1.0000000000008884
1.0000000000011966
1.0000000000015492
1.0000000000019416
1.0000000000023652
1.0000000000028118
1.0000000000032696
1.000000000003659
1.0000000000038092
0.999999999999496
0.9999999999997775
0.999999999999806
0.9999999999998233
0.9999999999998431
0.9999999999998636
0.9999999999998842
0.9999999999999041
0.9999999999999228
0.9999999999999404
0.999999999999956
0.9999999999999699
0.9999999999999815
0.9999999999999906
0.9999999999999961
0.9999999999999991
1.0
1.0
1.0
1.0
1.0
1.0
1.0
1.0
1.0000000000000004