# vtk DataFile Version 3.0 
cylinder.vtk
ASCII
DATASET UNSTRUCTURED_GRID
POINTS         3200 double
0.5 0.0 0.0
0.49845866687 0.039229547864 0.0
0.4938441703 0.07821723252 0.0
0.4861849602 0.11672268193 0.0
0.47552825815 0.15450849719 0.0
0.46193976626 0.19134171618 0.0
0.44550326209 0.22699524987 0.0
0.42632008218 0.26124928236 0.0
0.40450849719 0.29389262615 0.0
0.3802029828 0.32472402417 0.0
0.35355339059 0.35355339059 0.0
0.32472402417 0.3802029828 0.0
0.29389262615 0.40450849719 0.0
0.26124928236 0.42632008218 0.0
0.22699524987 0.44550326209 0.0
0.19134171618 0.46193976626 0.0
0.15450849719 0.47552825815 0.0
0.11672268193 0.4861849602 0.0
0.07821723252 0.4938441703 0.0
0.039229547864 0.49845866687 0.0
0.0 0.5 0.0
-0.039229547864 0.49845866687 0.0
-0.07821723252 0.4938441703 0.0
-0.11672268193 0.4861849602 0.0
-0.15450849719 0.47552825815 0.0
-0.19134171618 0.46193976626 0.0
-0.22699524987 0.44550326209 0.0
-0.26124928236 0.42632008218 0.0
-0.29389262615 0.40450849719 0.0
-0.32472402417 0.3802029828 0.0
-0.35355339059 0.35355339059 0.0
-0.3802029828 0.32472402417 0.0
-0.40450849719 0.29389262615 0.0
-0.42632008218 0.26124928236 0.0
-0.44550326209 0.22699524987 0.0
-0.46193976626 0.19134171618 0.0
-0.47552825815 0.15450849719 0.0
-0.4861849602 0.11672268193 0.0
-0.4938441703 0.07821723252 0.0
-0.49845866687 0.039229547864 0.0
-0.5 6.1232339957e-17 0.0
-0.49845866687 -0.039229547864 0.0
-0.4938441703 -0.07821723252 0.0
-0.4861849602 -0.11672268193 0.0
-0.47552825815 -0.15450849719 0.0
-0.46193976626 -0.19134171618 0.0
-0.44550326209 -0.22699524987 0.0
-0.42632008218 -0.26124928236 0.0
-0.40450849719 -0.29389262615 0.0
-0.3802029828 -0.32472402417 0.0
-0.35355339059 -0.35355339059 0.0
-0.32472402417 -0.3802029828 0.0
-0.29389262615 -0.40450849719 0.0
-0.26124928236 -0.42632008218 0.0
-0.22699524987 -0.44550326209 0.0
-0.19134171618 -0.46193976626 0.0
-0.15450849719 -0.47552825815 0.0
-0.11672268193 -0.4861849602 0.0
-0.07821723252 -0.4938441703 0.0
-0.039229547864 -0.49845866687 0.0
-1.1102230246e-16 -0.5 0.0
0.039229547864 -0.49845866687 0.0
0.07821723252 -0.4938441703 0.0
0.11672268193 -0.4861849602 0.0
0.15450849719 -0.47552825815 0.0
0.19134171618 -0.46193976626 0.0
0.22699524987 -0.44550326209 0.0
0.26124928236 -0.42632008218 0.0
0.29389262615 -0.40450849719 0.0
0.32472402417 -0.3802029828 0.0
0.35355339059 -0.35355339059 0.0
0.3802029828 -0.32472402417 0.0
0.40450849719 -0.29389262615 0.0
0.42632008218 -0.26124928236 0.0
0.44550326209 -0.22699524987 0.0
0.46193976626 -0.19134171618 0.0
0.47552825815 -0.15450849719 0.0
0.4861849602 -0.11672268193 0.0
0.4938441703 -0.07821723252 0.0
0.49845866687 -0.039229547864 0.0
0.54112028908 0.0 0.0
0.53945219582 0.042455808562 0.0
0.53445820039 0.084649862945 0.0
0.52616909242 0.12632202278 0.0
0.51463597703 0.16721536533 0.0
0.49992995971 0.20707776955 0.0
0.48214170795 0.24566347046 0.0
0.46138089222 0.28273457439 0.0
0.43777550987 0.31806252564 0.0
0.41147109593 0.35142951566 0.0
0.38262982585 0.38262982585 0.0
0.35142951566 0.41147109593 0.0
0.31806252564 0.43777550987 0.0
0.28273457439 0.46138089222 0.0
0.24566347046 0.48214170795 0.0
0.20707776955 0.49992995971 0.0
0.16721536533 0.51463597703 0.0
0.12632202278 0.52616909242 0.0
0.084649862945 0.53445820039 0.0
0.042455808562 0.53945219582 0.0
2.1554436839e-17 0.54112028908 0.0
-0.042455808562 0.53945219582 0.0
-0.084649862945 0.53445820039 0.0
-0.12632202278 0.52616909242 0.0
-0.16721536533 0.51463597703 0.0
-0.20707776955 0.49992995971 0.0
-0.24566347046 0.48214170795 0.0
-0.28273457439 0.46138089222 0.0
-0.31806252564 0.43777550987 0.0
-0.35142951566 0.41147109593 0.0
-0.38262982585 0.38262982585 0.0
-0.41147109593 0.35142951566 0.0
-0.43777550987 0.31806252564 0.0
-0.46138089222 0.28273457439 0.0
-0.48214170795 0.24566347046 0.0
-0.49992995971 0.20707776955 0.0
-0.51463597703 0.16721536533 0.0
-0.52616909242 0.12632202278 0.0
-0.53445820039 0.084649862945 0.0
-0.53945219582 0.042455808562 0.0
-0.54112028908 6.6270995905e-17 0.0
-0.53945219582 -0.042455808562 0.0
-0.53445820039 -0.084649862945 0.0
-0.52616909242 -0.12632202278 0.0
-0.51463597703 -0.16721536533 0.0
-0.49992995971 -0.20707776955 0.0
-0.48214170795 -0.24566347046 0.0
-0.46138089222 -0.28273457439 0.0
-0.43777550987 -0.31806252564 0.0
-0.41147109593 -0.35142951566 0.0
-0.38262982585 -0.38262982585 0.0
-0.35142951566 -0.41147109593 0.0
-0.31806252564 -0.43777550987 0.0
-0.28273457439 -0.46138089222 0.0
-0.24566347046 -0.48214170795 0.0
-0.20707776955 -0.49992995971 0.0
-0.16721536533 -0.51463597703 0.0
-0.12632202278 -0.52616909242 0.0
-0.084649862945 -0.53445820039 0.0
-0.042455808562 -0.53945219582 0.0
-1.5867890874e-16 -0.54112028908 0.0
0.042455808562 -0.53945219582 0.0
0.084649862945 -0.53445820039 0.0
0.12632202278 -0.52616909242 0.0
0.16721536533 -0.51463597703 0.0
0.20707776955 -0.49992995971 0.0
0.24566347046 -0.48214170795 0.0
0.28273457439 -0.46138089222 0.0
0.31806252564 -0.43777550987 0.0
0.35142951566 -0.41147109593 0.0
0.38262982585 -0.38262982585 0.0
0.41147109593 -0.35142951566 0.0
0.43777550987 -0.31806252564 0.0
0.46138089222 -0.28273457439 0.0
0.48214170795 -0.24566347046 0.0
0.49992995971 -0.20707776955 0.0
0.51463597703 -0.16721536533 0.0
0.52616909242 -0.12632202278 0.0
0.53445820039 -0.084649862945 0.0
0.53945219582 -0.042455808562 0.0
0.58907935268 0.0 0.0
0.58726341763 0.046218633323 0.0
0.58182680833 0.092152313402 0.0
0.57280304327 0.13751784383 0.0
0.56024775698 0.18203553101 0.0
0.54423835696 0.22543090862 0.0
0.5248735465 0.26743642971 0.0
0.50227271609 0.30779311628 0.0
0.47657520735 0.34625215593 0.0
0.44793945399 0.38257643591 0.0
0.41654200494 0.41654200494 0.0
0.38257643591 0.44793945399 0.0
0.34625215593 0.47657520735 0.0
0.30779311628 0.50227271609 0.0
0.26743642971 0.5248735465 0.0
0.22543090862 0.54423835696 0.0
0.18203553101 0.56024775698 0.0
0.13751784383 0.57280304327 0.0
0.092152313402 0.58182680833 0.0
0.046218633323 0.58726341763 0.0
1.7962142108e-17 0.58907935268 0.0
-0.046218633323 0.58726341763 0.0
-0.092152313402 0.58182680833 0.0
-0.13751784383 0.57280304327 0.0
-0.18203553101 0.56024775698 0.0
-0.22543090862 0.54423835696 0.0
-0.26743642971 0.5248735465 0.0
-0.30779311628 0.50227271609 0.0
-0.34625215593 0.47657520735 0.0
-0.38257643591 0.44793945399 0.0
-0.41654200494 0.41654200494 0.0
-0.44793945399 0.38257643591 0.0
-0.47657520735 0.34625215593 0.0
-0.50227271609 0.30779311628 0.0
-0.5248735465 0.26743642971 0.0
-0.54423835696 0.22543090862 0.0
-0.56024775698 0.18203553101 0.0
-0.57280304327 0.13751784383 0.0
-0.58182680833 0.092152313402 0.0
-0.58726341763 0.046218633323 0.0
-0.58907935268 7.2162904324e-17 0.0
-0.58726341763 -0.046218633323 0.0
-0.58182680833 -0.092152313402 0.0
-0.57280304327 -0.13751784383 0.0
-0.56024775698 -0.18203553101 0.0
-0.54423835696 -0.22543090862 0.0
-0.5248735465 -0.26743642971 0.0
-0.50227271609 -0.30779311628 0.0
-0.47657520735 -0.34625215593 0.0
-0.44793945399 -0.38257643591 0.0
-0.41654200494 -0.41654200494 0.0
-0.38257643591 -0.44793945399 0.0
-0.34625215593 -0.47657520735 0.0
-0.30779311628 -0.50227271609 0.0
-0.26743642971 -0.5248735465 0.0
-0.22543090862 -0.54423835696 0.0
-0.18203553101 -0.56024775698 0.0
-0.13751784383 -0.57280304327 0.0
-0.092152313402 -0.58182680833 0.0
-0.046218633323 -0.58726341763 0.0
-1.1283785308e-16 -0.58907935268 0.0
0.046218633323 -0.58726341763 0.0
0.092152313402 -0.58182680833 0.0
0.13751784383 -0.57280304327 0.0
0.18203553101 -0.56024775698 0.0
0.22543090862 -0.54423835696 0.0
0.26743642971 -0.5248735465 0.0
0.30779311628 -0.50227271609 0.0
0.34625215593 -0.47657520735 0.0
0.38257643591 -0.44793945399 0.0
0.41654200494 -0.41654200494 0.0
0.44793945399 -0.38257643591 0.0
0.47657520735 -0.34625215593 0.0
0.50227271609 -0.30779311628 0.0
0.5248735465 -0.26743642971 0.0
0.54423835696 -0.22543090862 0.0
0.56024775698 -0.18203553101 0.0
0.57280304327 -0.13751784383 0.0
0.58182680833 -0.092152313402 0.0
0.58726341763 -0.046218633323 0.0
0.64501455722 0.0 0.0
0.6430261926 0.050607258891 0.0
0.63707335768 0.1009025072 0.0
0.62719275366 0.150575658 0.0
0.61344529775 0.1993204598 0.0
0.59591574759 0.24683638468 0.0
0.57471217868 0.29283048117 0.0
0.54996531808 0.33701918037 0.0
0.52182773841 0.37913004425 0.0
0.49047291721 0.41890344533 0.0
0.45609416737 0.45609416737 0.0
0.41890344533 0.49047291721 0.0
0.37913004425 0.52182773841 0.0
0.33701918037 0.54996531808 0.0
0.29283048117 0.57471217868 0.0
0.24683638468 0.59591574759 0.0
0.1993204598 0.61344529775 0.0
0.150575658 0.62719275366 0.0
0.1009025072 0.63707335768 0.0
0.050607258891 0.6430261926 0.0
5.0350243173e-17 0.64501455722 0.0
-0.050607258891 0.6430261926 0.0
-0.1009025072 0.63707335768 0.0
-0.150575658 0.62719275366 0.0
-0.1993204598 0.61344529775 0.0
-0.24683638468 0.59591574759 0.0
-0.29283048117 0.57471217868 0.0
-0.33701918037 0.54996531808 0.0
-0.37913004425 0.52182773841 0.0
-0.41890344533 0.49047291721 0.0
-0.45609416737 0.45609416737 0.0
-0.49047291721 0.41890344533 0.0
-0.52182773841 0.37913004425 0.0
-0.54996531808 0.33701918037 0.0
-0.57471217868 0.29283048117 0.0
-0.59591574759 0.24683638468 0.0
-0.61344529775 0.1993204598 0.0
-0.62719275366 0.150575658 0.0
-0.63707335768 0.1009025072 0.0
-0.6430261926 0.050607258891 0.0
-0.64501455722 7.8988106468e-17 0.0
-0.6430261926 -0.050607258891 0.0
-0.63707335768 -0.1009025072 0.0
-0.62719275366 -0.150575658 0.0
-0.61344529775 -0.1993204598 0.0
-0.59591574759 -0.24683638468 0.0
-0.57471217868 -0.29283048117 0.0
-0.54996531808 -0.33701918037 0.0
-0.52182773841 -0.37913004425 0.0
-0.49047291721 -0.41890344533 0.0
-0.45609416737 -0.45609416737 0.0
-0.41890344533 -0.49047291721 0.0
-0.37913004425 -0.52182773841 0.0
-0.33701918037 -0.54996531808 0.0
-0.29283048117 -0.57471217868 0.0
-0.24683638468 -0.59591574759 0.0
-0.1993204598 -0.61344529775 0.0
-0.150575658 -0.62719275366 0.0
-0.1009025072 -0.63707335768 0.0
-0.050607258891 -0.6430261926 0.0
-9.2865418028e-17 -0.64501455722 0.0
0.050607258891 -0.6430261926 0.0
[...]
POINT_DATA  3200
FIELD  FlowField  4
Density    1 3200  double
1.02145836242831
1.0222067447259964
1.0231058286430297
1.021146131535369
1.0183602825487996
1.0155006987096782
1.0106230206410833
1.0030940274349247
0.9929908061926231
0.980718706071507
0.9669332925911432
0.9522514903728422
0.9371920529838217
0.9221713693345608
0.9076297294220872
0.8941206164153943
0.8820625709108616
0.8718298878185283
0.863825540277304
0.857758598432056
0.8570778502199596
0.8588728262473273
0.8636691288580168
0.8707075814378626
0.8797791488226293
0.8905879230480034
0.902819055798821
0.9161300391288782
0.930098940311355
0.9442721678232496
0.9582988241421959
0.9718424268359734
0.9846623312468519
0.996547806703798
1.0072774817629702
1.0166391430747936
1.0244518880273916
1.0305757241522833
1.0348813131999
1.037257233754233
1.038129570392003
1.0372572337542323
1.0348813131998986
1.0305757241522817
1.0244518880273912
1.0166391430747934
1.0072774817629688
0.9965478067037963
0.9846623312468513
0.9718424268359733
0.958298824142196
0.9442721678232497
0.9300989403113546
0.9161300391288781
0.9028190557988207
0.8905879230480029
0.8797791488226285
0.8707075814378618
0.8636691288580157
0.8588728262473264
0.857077850219959
0.8577585984320555
0.8638255402773026
0.871829887818527
0.8820625709108608
0.8941206164153938
0.9076297294220873
0.9221713693345613
0.9371920529838222
0.9522514903728426
0.9669332925911444
0.9807187060715085
0.9929908061926235
1.0030940274349245
1.0106230206410831
1.0155006987096786
1.0183602825488007
1.0211461315353694
1.0231058286430281
1.022206744725995
1.021960657100543
1.023010851029936
1.0228453797839159
1.0203491574404253
1.0181198645185465
1.0150965983530649
1.0099142823266527
1.0023749147476462
0.9926647584726253
0.9811881156099838
0.9684663632989858
0.9550055649790438
0.941303506153132
0.927745051671641
0.9147427644382397
0.9027441747273569
0.8921272113106357
0.883220628481124
0.8763743990365911
0.8714022950245455
0.8758457675688743
0.8718916201942389
0.87573656432338
0.8817287399208594
0.8896929443573374
0.8993446622794422
0.9103700507649218
0.9224389929239584
0.9351882180400803
0.9482316860674702
0.9612223187875624
0.9738503238828707
0.9858362203091945
0.9969795153860348
1.0070825833270354
1.0159551499932187
1.0234346569373998
1.0293963868641278
1.033726622147687
1.0362387035652525
1.037381698000569
1.0362387035652516
1.0337266221476862
1.0293963868641274
1.0234346569374002
1.0159551499932182
1.0070825833270345
0.9969795153860345
0.9858362203091945
0.9738503238828705
0.9612223187875624
0.9482316860674701
0.9351882180400802
0.9224389929239586
0.9103700507649221
0.8993446622794429
0.8896929443573377
0.8817287399208596
0.8757365643233802
0.8718916201942392
0.8758457675688746
0.8714022950245454
0.8763743990365905
0.8832206284811237
0.8921272113106355
0.9027441747273569
0.9147427644382398
0.9277450516716418
0.9413035061531329
0.9550055649790449
0.968466363298987
0.9811881156099852
0.9926647584726259
1.0023749147476464
1.0099142823266523
1.0150965983530644
1.0181198645185467
1.0203491574404258
1.022845379783915
1.0230108510299345
1.0230788723086721
1.0238248649790387
1.0226896578873454
1.0203770404804897
1.0185520435020947
1.015631247541175
1.0109279452644258
1.004431796984041
0.9962937265484527
0.986794154210289
0.976274566047295
0.9651342620499298
0.9537699544808252
0.9424993786362665
0.9316601733919198
0.9216154346464148
0.9126937962213945
0.9051754506997048
0.8993903002354751
0.8954845436694335
0.8989750491807493
0.8950264499339037
0.8980053411845493
0.9030014429953451
0.9097682544471457
0.9180161585119663
0.9274364309459381
0.937719353694785
0.9485521759990728
0.9596354147703674
0.9706892214687203
0.9814508942681273
0.9916748687729776
1.0011619146813506
1.0097354703974888
1.0172407085491002
1.0235517861585206
1.0285776092621928
1.0322393856889436
1.0343342787571503
1.0356230941359048
1.0343342787571512
1.0322393856889436
1.028577609262192
1.0235517861585202
1.0172407085490998
1.0097354703974888
1.001161914681351
0.9916748687729776
0.9814508942681269
0.9706892214687203
0.9596354147703675
0.9485521759990734
0.937719353694786
0.9274364309459395
0.9180161585119677
0.9097682544471474
0.9030014429953469
0.8980053411845511
0.8950264499339049
0.8989750491807507
0.8954845436694344
0.8993903002354752
0.9051754506997053
0.9126937962213951
0.9216154346464155
0.9316601733919206
0.9424993786362675
0.9537699544808267
0.9651342620499315
0.9762745660472968
0.986794154210291
0.9962937265484543
1.004431796984041
1.0109279452644255
1.0156312475411744
1.0185520435020938
1.0203770404804897
1.022689657887345
1.0238248649790374
1.0243148147117376
1.0245436412056597
1.022812224120991
1.0207522219013911
1.0188915971954502
1.0159169380179949
1.0115708427652852
1.0058940262026124
0.9990197035172721
0.991145282620609
0.9824981401281722
0.9733429447369039
0.9639582053366308
0.9546243840418516
0.9456251960374074
0.9372556140623779
0.9297978195706714
0.9235167084535644
0.9187065660833723
0.9155023314847418
0.9183644545602804
0.9148949138106458
0.9172493786502339
0.9213288362346325
0.9269200069378907
0.9337717604354779
0.9416174361466703
0.9501894900735813
0.9592267096918506
0.9684778513609946
0.9777054083833212
0.986687115066805
0.9952238234114423
1.0031474888720229
1.01030620294591
1.0165716026936966
1.0218391578110442
1.026033295016848
1.0290925833524858
1.0308360759147457
1.0322537040040884
1.030836075914747
1.029092583352486
1.0260332950168474
1.021839157811044
1.0165716026936973
1.0103062029459116
1.0031474888720242
0.9952238234114431
0.9866871150668056
0.9777054083833218
0.9684778513609954
0.9592267096918515
0.9501894900735824
0.941617436146671
0.9337717604354788
0.9269200069378921
0.9213288362346342
0.9172493786502356
0.9148949138106476
0.9183644545602815
0.9155023314847428
0.9187065660833729
0.9235167084535648
0.9297978195706715
0.9372556140623783
0.9456251960374077
0.9546243840418521
0.9639582053366316
0.9733429447369052
0.9824981401281736
0.9911452826206105
0.9990197035172746
1.0058940262026141
1.0115708427652859
1.0159169380179949
1.0188915971954497
1.0207522219013911
1.022812224120991
1.0245436412056588
1.0253250245185868
1.025008517187268
1.0230706927597792
1.0210441179478167
1.0189186137170696
1.0158507890270163
1.0117810026972338
1.0067764151508316
1.0009422550335232
0.9943952386990073
0.987283315756669
0.9797825444112479
0.972093576457924
0.9644354152594654
0.9570417859049916
0.950151857940714
0.9440057529845248
0.9388285742301948
0.9348568263794581
0.932195530572809
0.9345223365351534
0.931561152877662
0.9334093285440997
0.9366805753603334
0.9412074091632939
0.9467834653816692
0.9531892714576166
0.9602050815282451
0.9676137863980839
0.9752043542475475
0.9827776911973823
0.9901515632111347
0.9971635215188647
1.003672703649528
1.009553666687814
1.0147014605074904
1.0190297264917032
1.0224722239775559
1.0249788172707948
1.0263956576669897
1.0278837911021632
1.0263956576669906
1.0249788172707952
1.0224722239775559
1.019029726491704
1.0147014605074924
1.0095536666878162
1.0036727036495303
0.9971635215188663
0.9901515632111358
0.9827776911973833
0.975204354247548
0.9676137863980839
0.9602050815282449
0.9531892714576166
0.9467834653816695
0.9412074091632943
0.9366805753603343
0.933409328544101
0.9315611528776628
0.934522336535153
0.9321955305728088
0.934856826379458
0.9388285742301941
0.9440057529845244
0.9501518579407139
0.9570417859049911
0.9644354152594653
0.9720935764579245
0.9797825444112487
0.9872833157566698
0.9943952386990084
1.0009422550335245
1.0067764151508338
1.0117810026972356
1.0158507890270168
1.0189186137170696
1.0210441179478165
1.0230706927597797
1.0250085171872676
1.0255528814335024
1.0248196975864676
1.0229368223928095
1.0208333310968118
1.0184814541832146
1.015394090737093
1.0116098141307839
1.00720916993866
1.002254592819383
0.996811075339429
0.9909652193098638
0.9848345293276065
0.9785647273944978
0.9723250050000423
0.9662993297442576
0.9606799742790004
0.9556621357496798
0.9514326970197299
0.9481791040788515
0.9459767450385917
0.9478307585204688
0.9453190358875002
0.9467310346191063
0.9492947568265557
0.9528808072114066
0.9573250015175098
0.9624518175794691
0.9680821321798586
0.9740374918067328
0.9801444603476154
0.9862393882379292
0.992174338990508
0.9978181205839208
1.0030561237838098
1.0077883350552395
1.0119301376918461
1.0154110946768076
1.018175299514637
1.0201831666022285
1.0213066762254475
1.0228231856525032
1.0213066762254475
1.020183166602228
1.018175299514638
1.0154110946768093
1.0119301376918481
1.0077883350552412
1.003056123783811
0.9978181205839216
0.9921743389905086
0.9862393882379296
0.9801444603476156
0.9740374918067326
0.9680821321798584
0.9624518175794688
0.9573250015175093
0.952880807211406
0.9492947568265556
0.9467310346191065
0.9453190358875001
0.9478307585204684
0.9459767450385906
0.9481791040788502
0.9514326970197287
0.9556621357496787
0.960679974279
0.9662993297442571
0.9723250050000422
0.9785647273944985
0.9848345293276072
0.9909652193098643
0.9968110753394291
1.002254592819383
1.007209169938661
1.0116098141307848
1.0153940907370926
1.0184814541832141
1.0208333310968116
1.0229368223928095
1.024819697586468
1.0245922160648262
1.0236478004490126
1.0220198549611343
1.0199223509587756
1.0175078598417122
1.0145559253049565
1.0111460944536874
1.0073412514813553
1.003167804023475
0.9986541083133723
0.9938536467487498
0.988848729767489
0.9837482459957064
0.9786816086628368
0.9737923515325898
0.96923297186251
0.9651589613004453
0.9617193002264147
0.9590602920945558
0.9572357346224134
0.9586789597742511
0.9565471744568178
0.9575836779601299
0.9595383690423867
0.9623111183240214
0.9657727154230141
0.9697849667659727
0.974203310027797
0.9788828831770194
0.98368303895505
0.9884713259791419
0.9931278058300572
0.9975462742198814
1.0016347290400958
1.0053157696465742
1.0085259321601596
1.0112138621911944
1.0133391898431365
1.0148749947611007
1.0157202828562917
1.0172606698659374
1.0157202828562912
1.014874994761101
1.013339189843138
1.0112138621911961
1.0085259321601605
1.005315769646575
1.001634729040096
0.9975462742198816
0.9931278058300571
0.988471325979142
0.9836830389550503
0.9788828831770191
0.974203310027797
0.9697849667659729
0.965772715423014
0.9623111183240213
0.9595383690423868
0.9575836779601296
0.9565471744568175
0.9586789597742508
0.9572357346224126
0.9590602920945547
0.9617193002264136
0.9651589613004447
0.9692329718625091
0.9737923515325893
0.9786816086628368
0.9837482459957072
0.9888487297674896
0.9938536467487498
0.9986541083133719
1.0031678040234744
1.007341251481355
1.0111460944536876
1.014555925304956
1.017507859841712
1.0199223509587754
1.0220198549611343
1.0236478004490126
1.022455978813105
1.02152700634578
1.0202990110002141
1.0183759188695076
1.0160984699914957
1.0134473488910976
1.010495930377649
1.0072773256276228
1.0037959836680697
1.0000673661004746
0.9961304070950966
0.992048227593819
0.9879041051834182
0.9837975315941282
0.9798400263994075
0.9761511346673871
0.9728525446237359
0.9700594746858323
0.9678840309515078
0.9663646383176818
0.9674562569535189
0.9656356937523606
0.9663522821393956
0.9677898502040189
0.9698705448383741
0.972493491436079
0.9755507343415856
0.978926350266016
0.9825025286180952
0.9861635428406618
0.98979964717463
0.9933109758508624
0.996610229081575
0.9996251368128074
1.0023009577431106
1.0046002792277242
1.006499456851584
1.0079835480200645
1.0090448040390965
1.0096132828384115
1.0111950037882338
1.0096132828384115
1.0090448040390967
1.0079835480200658
1.006499456851585
1.0046002792277247
1.0023009577431112
0.9996251368128076
0.9966102290815749
0.9933109758508621
0.9897996471746303
0.9861635428406615
0.9825025286180945
0.9789263502660163
0.975550734341586
0.9724934914360794
0.9698705448383746
0.9677898502040185
0.9663522821393952
0.9656356937523607
0.9674562569535191
0.9663646383176815
0.9678840309515073
0.9700594746858315
0.9728525446237354
0.9761511346673869
0.979840026399407
0.9837975315941277
0.9879041051834183
0.992048227593819
0.9961304070950964
1.0000673661004742
1.0037959836680683
1.0072773256276213
1.0104959303776486
1.0134473488910976
1.0160984699914954
1.018375918869508
1.0202990110002146
1.0215270063457798
1.0195823681020773
1.0188212280468798
1.018012088415493
1.0164182927502805
1.0144541740265076
1.012213995614512
1.0097509100533542
1.0070795839124165
1.0042032824848406
1.0011386157391033
0.9979201643775123
0.9945984002297269
0.991237813705402
0.9879152682102936
0.9847173499194485
0.981736498311574
0.9790659187811128
0.9767929163698179
0.9750025317041694
0.9737221870179084
0.9745089300953325
0.9729383891919302
0.9733833336276616
0.9743854380382361
0.9758841532944235
0.9778010942245676
0.9800508569082679
0.9825376144542397
0.9851604160764231
0.9878179352839065
0.9904144855046518
0.9928661091160226
0.9951055538681861
0.9970857054970311
0.998781100669092
1.0001865094464943
1.0013111999773887
1.002169651201429
1.0027753708259217
1.0030892509631613
1.004643468203386
1.0030892509631613
1.0027753708259215
1.00216965120143
1.0013111999773894
1.0001865094464957
0.9987811006690932
0.9970857054970308
0.9951055538681858
0.9928661091160231
0.9904144855046516
0.9878179352839057
0.9851604160764232
0.9825376144542403
0.980050856908269
0.9778010942245684
0.9758841532944235
0.9743854380382357
0.9733833336276617
0.9729383891919308
0.974508930095333
0.9737221870179087
0.9750025317041696
0.9767929163698178
0.9790659187811127
0.9817364983115741
0.9847173499194484
0.9879152682102935
0.9912378137054012
0.9945984002297262
0.9979201643775116
1.0011386157391027
1.0042032824848404
1.007079583912416
1.0097509100533537
1.0122139956145118
1.0144541740265076
1.0164182927502807
1.0180120884154935
1.0188212280468807
1.0165825118471754
1.0160052855046016
1.0154955443831548
1.0143044175031846
1.0127589953996896
1.0109680967067227
1.0089743843847578
1.006794752693619
1.0044432420153557
1.0019427048529403
0.999325528564564
0.9966334394135888
0.9939174302258235
0.991236778334743
0.9886570681237967
0.9862477730927578
0.9840792194168534
0.9822174850483467
0.9807268874502952
0.9796258899790503
0.9801532307014047
0.9787739199271243
0.978988207804628
0.9796265370489626
0.9806398189555168
0.9819620834202838
0.9835177913222339
0.9852190636101817
0.9869732258815801
0.988691795537087
0.9903003109340416
0.991745465485486
0.9929976812374245
0.9940492997749474
0.9949093622523811
0.9955973158757834
0.9961365159033888
0.9965466979446159
0.996839608699315
0.9969875039031478
0.9982482608873453
0.9969875039031472
0.9968396086993151
0.9965466979446168
0.9961365159033905
0.9955973158757847
0.9949093622523812
0.9940492997749467
0.9929976812374245
0.991745465485486
0.9903003109340413
0.988691795537087
0.9869732258815805
0.9852190636101826
0.9835177913222352
0.9819620834202846
0.9806398189555177
0.9796265370489632
0.9789882078046289
0.9787739199271255
0.9801532307014051
0.9796258899790509
0.9807268874502957
0.9822174850483467
0.9840792194168534
0.986247773092758
0.9886570681237971
0.991236778334743
0.9939174302258232
0.9966334394135886
0.9993255285645636
1.0019427048529397
1.0044432420153557
1.0067947526936187
1.008974384384758
1.010968096706723
1.0127589953996898
1.0143044175031852
1.0154955443831555
1.0160052855046022
1.0139348938000403
1.013454726173302
1.0130919792994904
1.0122761021336915
1.0111518313798822
1.0097852831808758
1.0082160197018084
1.0064708778846818
1.004574848448799
1.0025552787273198
1.0004432519895237
0.9982745041648897
0.9960894874848957
0.9939329988969039
0.9918538066914279
0.9899036416531386
0.9881350905747218
0.9865974507970466
0.9853384268255222
0.9843700405340328
0.9846776920282035
0.9834345698732615
0.9834514595167886
0.9837782085034087
0.9843611886319231
0.985129546183889
0.9860064352224632
0.986913152742711
0.9877814665891586
0.9885644522210799
0.9892428796091511
0.9898234155708314
0.990329511878912
0.9907891954977691
0.9912238156132736
0.9916408691845282
0.9920326991716929
0.99237869848863
0.9926495070152838
0.9927945654223307
0.9934678075144433
0.9927945654223308
0.9926495070152838
0.9923786984886306
0.9920326991716942
0.991640869184529
0.9912238156132737
0.9907891954977696
0.990329511878912
0.9898234155708311
0.9892428796091517
0.9885644522210808
0.9877814665891597
0.9869131527427121
0.9860064352224643
0.9851295461838904
0.9843611886319242
0.9837782085034096
0.9834514595167897
0.9834345698732626
0.9846776920282038
0.9843700405340333
0.985338426825523
0.9865974507970471
0.9881350905747218
0.9899036416531389
0.9918538066914283
0.9939329988969045
0.9960894874848961
0.99827450416489
1.0004432519895239
1.0025552787273198
1.0045748484487993
1.0064708778846814
1.008216019701808
1.009785283180876
1.0111518313798833
1.0122761021336928
1.0130919792994917
1.0134547261733031
1.0117940340621672
1.0113510102877161
1.0110676428079064
1.0105310791647637
1.0097429756277367
1.0087307485529742
1.0075268996698121
1.0061606490489392
1.0046602260816402
1.003053482077559
1.001368408892013
0.9996341742453984
0.9978823884468443
0.9961479630331507
0.9944687031476631
0.9928836064194634
0.9914308458941724
0.9901451748277639
0.9890602363320303
0.9881809064564768
0.9882749112614954
0.9871319856375412
0.9869448908005314
0.9869260576720986
0.9870052760834205
0.9871122899485562
0.9871955702975468
0.9872304351414788
0.9872249928265444
0.9872166622503923
0.9872607656530366
0.9874130803229907
0.9877121962362593
0.9881678462506751
0.9887578475420339
0.9894323080547075
0.9901230551188801
0.9907551475955801
0.9912545583161784
0.9915417788542467
0.9915572988551887
0.9915417788542467
0.9912545583161783
0.9907551475955806
0.990123055118881
0.9894323080547082
0.9887578475420344
0.9881678462506757
0.9877121962362594
0.987413080322991
0.9872607656530373
0.9872166622503928
0.9872249928265452
0.9872304351414795
0.9871955702975477
0.987112289948557
0.9870052760834214
0.9869260576720992
0.9869448908005323
0.9871319856375419
0.9882749112614956
0.9881809064564772
0.9890602363320308
0.9901451748277643
0.9914308458941733
0.9928836064194639
0.9944687031476636
0.9961479630331515
0.997882388446845
0.9996341742453985
1.0013684088920136
1.0030534820775594
1.0046602260816402
1.0061606490489399
1.0075268996698126
1.008730748552974
1.0097429756277372
1.0105310791647655
1.0110676428079073
1.011351010287717
1.0101248691772702
1.0097553774505152
1.0095418787920811
1.0091749837924548
1.0086159725904398
1.007873677475905
1.0069679681889971
1.005921714434334
1.0047586803266964
1.0035015507561322
1.0021720135497096
1.0007927828360226
0.99938924363513
0.9979892784312955
0.9966217923699331
0.9953151010301734
0.9940958467496951
0.992987252959856
0.9920112025659603
0.9911593586054867
0.9910255934666049
0.98990007824287
0.9893497434115733
0.9887670466445143
0.9881219562320603
0.9874169388508904
0.9866978575061726
0.9860473722778679
0.9855670016197232
0.9853508692873346
0.9854622603914867
0.9859188345282813
0.9866894883407428
0.9877023478815085
0.9888597932478952
0.9900546283377812
0.9911834237779426
0.9921556802476578
0.9928950204487647
0.993328314715737
0.9927477510739382
0.9933283147157371
0.9928950204487643
0.9921556802476578
0.9911834237779426
0.9900546283377815
0.9888597932478961
0.987702347881509
0.9866894883407427
0.9859188345282818
0.985462260391487
0.9853508692873353
0.9855670016197235
0.9860473722778682
0.9866978575061731
0.9874169388508909
0.9881219562320606
0.9887670466445151
0.9893497434115742
0.9899000782428703
0.9910255934666045
0.9911593586054863
0.9920112025659602
0.9929872529598559
0.994095846749695
0.9953151010301741
0.9966217923699333
0.9979892784312957
0.9993892436351305
1.0007927828360232
1.0021720135497103
1.003501550756133
1.004758680326696
1.0059217144343344
1.0069679681889985
1.0078736774759056
1.0086159725904391
1.0091749837924562
1.0095418787920825
1.009755377450516
1.008921830616168
1.0086664532188017
1.0085036352958074
1.008234393675942
1.0078287427550268
1.0072839514267151
1.006608087959662
1.0058156202462227
1.0049226961409883
1.0039448941714986
1.0028978137259872
1.0017987837934152
1.0006671439895813
0.9995228919506
0.9983852896759339
0.9972723608004764
0.9962007551345762
0.995184715237305