# vtk DataFile Version 3.0 
shock_diffraction.vtk
ASCII
DATASET UNSTRUCTURED_GRID
POINTS         10201 double
0.0 0.0 0.0
0.01 0.0 0.0
0.02 0.0 0.0
0.03 0.0 0.0
0.04 0.0 0.0
0.05 0.0 0.0
0.06 0.0 0.0
0.07 0.0 0.0
0.08 0.0 0.0
0.09 0.0 0.0
0.1 0.0 0.0
0.11 0.0 0.0
0.12 0.0 0.0
0.13 0.0 0.0
0.14 0.0 0.0
0.15 0.0 0.0
0.16 0.0 0.0
0.17 0.0 0.0
0.18 0.0 0.0
0.19 0.0 0.0
0.2 0.0 0.0
0.21 0.0 0.0
0.22 0.0 0.0
0.23 0.0 0.0
0.24 0.0 0.0
0.25 0.0 0.0
0.26 0.0 0.0
0.27 0.0 0.0
0.28 0.0 0.0
0.29 0.0 0.0
0.3 0.0 0.0
0.31 0.0 0.0
0.32 0.0 0.0
0.33 0.0 0.0
0.34 0.0 0.0
0.35000000000000003 0.0 0.0
0.36 0.0 0.0
0.37 0.0 0.0
0.38 0.0 0.0
0.39 0.0 0.0
0.4 0.0 0.0
0.41000000000000003 0.0 0.0
0.42 0.0 0.0
0.43 0.0 0.0
0.44 0.0 0.0
0.45 0.0 0.0
0.46 0.0 0.0
0.47000000000000003 0.0 0.0
0.48 0.0 0.0
0.49 0.0 0.0
0.5 0.0 0.0
0.51 0.0 0.0
0.52 0.0 0.0
0.53 0.0 0.0
0.54 0.0 0.0
0.55 0.0 0.0
0.56 0.0 0.0
0.5700000000000001 0.0 0.0
0.58 0.0 0.0
0.59 0.0 0.0
0.6 0.0 0.0
0.61 0.0 0.0
0.62 0.0 0.0
0.63 0.0 0.0
0.64 0.0 0.0
0.65 0.0 0.0
0.66 0.0 0.0
0.67 0.0 0.0
0.68 0.0 0.0
0.6900000000000001 0.0 0.0
0.7000000000000001 0.0 0.0
0.71 0.0 0.0
0.72 0.0 0.0
0.73 0.0 0.0
0.74 0.0 0.0
0.75 0.0 0.0
0.76 0.0 0.0
0.77 0.0 0.0
0.78 0.0 0.0
0.79 0.0 0.0
0.8 0.0 0.0
0.81 0.0 0.0
0.8200000000000001 0.0 0.0
0.8300000000000001 0.0 0.0
0.84 0.0 0.0
0.85 0.0 0.0
0.86 0.0 0.0
0.87 0.0 0.0
0.88 0.0 0.0
0.89 0.0 0.0
0.9 0.0 0.0
0.91 0.0 0.0
0.92 0.0 0.0
0.93 0.0 0.0
0.9400000000000001 0.0 0.0
0.9500000000000001 0.0 0.0
0.96 0.0 0.0
0.97 0.0 0.0
0.98 0.0 0.0
0.99 0.0 0.0
1.0 0.0 0.0
0.0 0.01 0.0
0.01 0.01 0.0
0.02 0.01 0.0
0.03 0.01 0.0
0.04 0.01 0.0
0.05 0.01 0.0
0.06 0.01 0.0
0.07 0.01 0.0
0.08 0.01 0.0
0.09 0.01 0.0
0.1 0.01 0.0
0.11 0.01 0.0
0.12 0.01 0.0
0.13 0.01 0.0
0.14 0.01 0.0
0.15 0.01 0.0
0.16 0.01 0.0
0.17 0.01 0.0
0.18 0.01 0.0
0.19 0.01 0.0
0.2 0.01 0.0
0.21 0.01 0.0
0.22 0.01 0.0
0.23 0.01 0.0
0.24 0.01 0.0
0.25 0.01 0.0
0.26 0.01 0.0
0.27 0.01 0.0
0.28 0.01 0.0
0.29 0.01 0.0
0.3 0.01 0.0
0.31 0.01 0.0
0.32 0.01 0.0
0.33 0.01 0.0
0.34 0.01 0.0
0.35000000000000003 0.01 0.0
0.36 0.01 0.0
0.37 0.01 0.0
0.38 0.01 0.0
0.39 0.01 0.0
0.4 0.01 0.0
0.41000000000000003 0.01 0.0
0.42 0.01 0.0
0.43 0.01 0.0
0.44 0.01 0.0
0.45 0.01 0.0
0.46 0.01 0.0
0.47000000000000003 0.01 0.0
0.48 0.01 0.0
0.49 0.01 0.0
0.5 0.01 0.0
0.51 0.01 0.0
0.52 0.01 0.0
0.53 0.01 0.0
0.54 0.01 0.0
0.55 0.01 0.0
0.56 0.01 0.0
0.5700000000000001 0.01 0.0
0.58 0.01 0.0
0.59 0.01 0.0
0.6 0.01 0.0
0.61 0.01 0.0
0.62 0.01 0.0
0.63 0.01 0.0
0.64 0.01 0.0
0.65 0.01 0.0
0.66 0.01 0.0
0.67 0.01 0.0
0.68 0.01 0.0
0.6900000000000001 0.01 0.0
0.7000000000000001 0.01 0.0
0.71 0.01 0.0
0.72 0.01 0.0
0.73 0.01 0.0
0.74 0.01 0.0
0.75 0.01 0.0
0.76 0.01 0.0
0.77 0.01 0.0
0.78 0.01 0.0
0.79 0.01 0.0
0.8 0.01 0.0
0.81 0.01 0.0
0.8200000000000001 0.01 0.0
0.8300000000000001 0.01 0.0
0.84 0.01 0.0
0.85 0.01 0.0
0.86 0.01 0.0
0.87 0.01 0.0
0.88 0.01 0.0
0.89 0.01 0.0
0.9 0.01 0.0
0.91 0.01 0.0
0.92 0.01 0.0
0.93 0.01 0.0
0.9400000000000001 0.01 0.0
0.9500000000000001 0.01 0.0
0.96 0.01 0.0
0.97 0.01 0.0
0.98 0.01 0.0
0.99 0.01 0.0
1.0 0.01 0.0
0.0 0.02 0.0
0.01 0.02 0.0
0.02 0.02 0.0
0.03 0.02 0.0
0.04 0.02 0.0
0.05 0.02 0.0
0.06 0.02 0.0
0.07 0.02 0.0
0.08 0.02 0.0
0.09 0.02 0.0
0.1 0.02 0.0
0.11 0.02 0.0
0.12 0.02 0.0
0.13 0.02 0.0
0.14 0.02 0.0
0.15 0.02 0.0
0.16 0.02 0.0
0.17 0.02 0.0
0.18 0.02 0.0
0.19 0.02 0.0
0.2 0.02 0.0
0.21 0.02 0.0
0.22 0.02 0.0
0.23 0.02 0.0
0.24 0.02 0.0
0.25 0.02 0.0
0.26 0.02 0.0
0.27 0.02 0.0
0.28 0.02 0.0
0.29 0.02 0.0
0.3 0.02 0.0
0.31 0.02 0.0
0.32 0.02 0.0
0.33 0.02 0.0
0.34 0.02 0.0
0.35000000000000003 0.02 0.0
0.36 0.02 0.0
0.37 0.02 0.0
0.38 0.02 0.0
0.39 0.02 0.0
0.4 0.02 0.0
0.41000000000000003 0.02 0.0
0.42 0.02 0.0
0.43 0.02 0.0
0.44 0.02 0.0
0.45 0.02 0.0
0.46 0.02 0.0
0.47000000000000003 0.02 0.0
0.48 0.02 0.0
0.49 0.02 0.0
0.5 0.02 0.0
0.51 0.02 0.0
0.52 0.02 0.0
0.53 0.02 0.0
0.54 0.02 0.0
0.55 0.02 0.0
0.56 0.02 0.0
0.5700000000000001 0.02 0.0
0.58 0.02 0.0
0.59 0.02 0.0
0.6 0.02 0.0
0.61 0.02 0.0
0.62 0.02 0.0
0.63 0.02 0.0
0.64 0.02 0.0
0.65 0.02 0.0
0.66 0.02 0.0
0.67 0.02 0.0
0.68 0.02 0.0
0.6900000000000001 0.02 0.0
0.7000000000000001 0.02 0.0
0.71 0.02 0.0
0.72 0.02 0.0
0.73 0.02 0.0
0.74 0.02 0.0
0.75 0.02 0.0
0.76 0.02 0.0
0.77 0.02 0.0
0.78 0.02 0.0
0.79 0.02 0.0
0.8 0.02 0.0
0.81 0.02 0.0
0.8200000000000001 0.02 0.0
0.8300000000000001 0.02 0.0
0.84 0.02 0.0
0.85 0.02 0.0
0.86 0.02 0.0
0.87 0.02 0.0
0.88 0.02 0.0
0.89 0.02 0.0
0.9 0.02 0.0
0.91 0.02 0.0
0.92 0.02 0.0
0.93 0.02 0.0
0.9400000000000001 0.02 0.0
0.9500000000000001 0.02 0.0
0.96 0.02 0.0
0.97 0.02 0.0
0.98 0.02 0.0
0.99 0.02 0.0
1.0 0.02 0.0
0.0 0.03 0.0
0.01 0.03 0.0
0.02 0.03 0.0
0.03 0.03 0.0
0.04 0.03 0.0
0.05 0.03 0.0
0.06 0.03 0.0
0.07 0.03 0.0
0.08 0.03 0.0
0.09 0.03 0.0
0.1 0.03 0.0
0.11 0.03 0.0
0.12 0.03 0.0
0.13 0.03 0.0
0.14 0.03 0.0
0.15 0.03 0.0
0.16 0.03 0.0
0.17 0.03 0.0
0.18 0.03 0.0
0.19 0.03 0.0
0.2 0.03 0.0
0.21 0.03 0.0
0.22 0.03 0.0
0.23 0.03 0.0
0.24 0.03 0.0
0.25 0.03 0.0
0.26 0.03 0.0
0.27 0.03 0.0
0.28 0.03 0.0
0.29 0.03 0.0
0.3 0.03 0.0
0.31 0.03 0.0
0.32 0.03 0.0
0.33 0.03 0.0
0.34 0.03 0.0
0.35000000000000003 0.03 0.0
0.36 0.03 0.0
0.37 0.03 0.0
0.38 0.03 0.0
0.39 0.03 0.0
0.4 0.03 0.0
0.41000000000000003 0.03 0.0
0.42 0.03 0.0
0.43 0.03 0.0
0.44 0.03 0.0
0.45 0.03 0.0
0.46 0.03 0.0
0.47000000000000003 0.03 0.0
0.48 0.03 0.0
0.49 0.03 0.0
0.5 0.03 0.0
0.51 0.03 0.0
0.52 0.03 0.0
0.53 0.03 0.0
0.54 0.03 0.0
0.55 0.03 0.0
0.56 0.03 0.0
0.5700000000000001 0.03 0.0
0.58 0.03 0.0
0.59 0.03 0.0
0.6 0.03 0.0
0.61 0.03 0.0
0.62 0.03 0.0
0.63 0.03 0.0
0.64 0.03 0.0
0.65 0.03 0.0
0.66 0.03 0.0
0.67 0.03 0.0
0.68 0.03 0.0
0.6900000000000001 0.03 0.0
0.7000000000000001 0.03 0.0
0.71 0.03 0.0
0.72 0.03 0.0
0.73 0.03 0.0
0.74 0.03 0.0
0.75 0.03 0.0
0.76 0.03 0.0
0.77 0.03 0.0
0.78 0.03 0.0
0.79 0.03 0.0
0.8 0.03 0.0
0.81 0.03 0.0
0.8200000000000001 0.03 0.0
0.8300000000000001 0.03 0.0
0.84 0.03 0.0
0.85 0.03 0.0
0.86 0.03 0.0
0.87 0.03 0.0
0.88 0.03 0.0
0.89 0.03 0.0
0.9 0.03 0.0
0.91 0.03 0.0
0.92 0.03 0.0
0.93 0.03 0.0
0.9400000000000001 0.03 0.0
0.9500000000000001 0.03 0.0
0.96 0.03 0.0
0.97 0.03 0.0
0.98 0.03 0.0
0.99 0.03 0.0
1.0 0.03 0.0
0.0 0.04 0.0
0.01 0.04 0.0
0.02 0.04 0.0
0.03 0.04 0.0
0.04 0.04 0.0
0.05 0.04 0.0
0.06 0.04 0.0
0.07 0.04 0.0
0.08 0.04 0.0
0.09 0.04 0.0
0.1 0.04 0.0
0.11 0.04 0.0
0.12 0.04 0.0
0.13 0.04 0.0
0.14 0.04 0.0
0.15 0.04 0.0
0.16 0.04 0.0
0.17 0.04 0.0
0.18 0.04 0.0
0.19 0.04 0.0
0.2 0.04 0.0
0.21 0.04 0.0
0.22 0.04 0.0
0.23 0.04 0.0
0.24 0.04 0.0
0.25 0.04 0.0
0.26 0.04 0.0
0.27 0.04 0.0
0.28 0.04 0.0
0.29 0.04 0.0
0.3 0.04 0.0
0.31 0.04 0.0
0.32 0.04 0.0
0.33 0.04 0.0
0.34 0.04 0.0
0.35000000000000003 0.04 0.0
0.36 0.04 0.0
0.37 0.04 0.0
0.38 0.04 0.0
0.39 0.04 0.0
0.4 0.04 0.0
0.41000000000000003 0.04 0.0
0.42 0.04 0.0
0.43 0.04 0.0
0.44 0.04 0.0
0.45 0.04 0.0
0.46 0.04 0.0
0.47000000000000003 0.04 0.0
0.48 0.04 0.0
0.49 0.04 0.0
0.5 0.04 0.0
0.51 0.04 0.0
0.52 0.04 0.0
0.53 0.04 0.0
0.54 0.04 0.0
0.55 0.04 0.0
0.56 0.04 0.0
0.5700000000000001 0.04 0.0
0.58 0.04 0.0
0.59 0.04 0.0
0.6 0.04 0.0
0.61 0.04 0.0
0.62 0.04 0.0
0.63 0.04 0.0
0.64 0.04 0.0
0.65 0.04 0.0
0.66 0.04 0.0
0.67 0.04 0.0
0.68 0.04 0.0
0.6900000000000001 0.04 0.0
0.7000000000000001 0.04 0.0
0.71 0.04 0.0
0.72 0.04 0.0
0.73 0.04 0.0
0.74 0.04 0.0
0.75 0.04 0.0
0.76 0.04 0.0
0.77 0.04 0.0
0.78 0.04 0.0
0.79 0.04 0.0
0.8 0.04 0.0
0.81 0.04 0.0
0.8200000000000001 0.04 0.0
0.8300000000000001 0.04 0.0
0.84 0.04 0.0
0.85 0.04 0.0
0.86 0.04 0.0
0.87 0.04 0.0
0.88 0.04 0.0
0.89 0.04 0.0
0.9 0.04 0.0
0.91 0.04 0.0
0.92 0.04 0.0
0.93 0.04 0.0
0.9400000000000001 0.04 0.0
0.9500000000000001 0.04 0.0
0.96 0.04 0.0
0.97 0.04 0.0
0.98 0.04 0.0
0.99 0.04 0.0
1.0 0.04 0.0
0.0 0.05 0.0
0.01 0.05 0.0
0.02 0.05 0.0
0.03 0.05 0.0
0.04 0.05 0.0
0.05 0.05 0.0
0.06 0.05 0.0
0.07 0.05 0.0
0.08 0.05 0.0
0.09 0.05 0.0
0.1 0.05 0.0
0.11 0.05 0.0
0.12 0.05 0.0
0.13 0.05 0.0
0.14 0.05 0.0
0.15 0.05 0.0
0.16 0.05 0.0
0.17 0.05 0.0
0.18 0.05 0.0
0.19 0.05 0.0
0.2 0.05 0.0
0.21 0.05 0.0
0.22 0.05 0.0
0.23 0.05 0.0
0.24 0.05 0.0
0.25 0.05 0.0
0.26 0.05 0.0
0.27 0.05 0.0
0.28 0.05 0.0
0.29 0.05 0.0
0.3 0.05 0.0
0.31 0.05 0.0
0.32 0.05 0.0
0.33 0.05 0.0
0.34 0.05 0.0
0.35000000000000003 0.05 0.0
0.36 0.05 0.0
0.37 0.05 0.0
0.38 0.05 0.0
0.39 0.05 0.0
0.4 0.05 0.0
0.41000000000000003 0.05 0.0
0.42 0.05 0.0
0.43 0.05 0.0
0.44 0.05 0.0
0.45 0.05 0.0
0.46 0.05 0.0
0.47000000000000003 0.05 0.0
0.48 0.05 0.0
0.49 0.05 0.0
0.5 0.05 0.0
0.51 0.05 0.0
0.52 0.05 0.0
0.53 0.05 0.0
0.54 0.05 0.0
0.55 0.05 0.0
0.56 0.05 0.0
0.5700000000000001 0.05 0.0
0.58 0.05 0.0
0.59 0.05 0.0
0.6 0.05 0.0
0.61 0.05 0.0
0.62 0.05 0.0
0.63 0.05 0.0
0.64 0.05 0.0
0.65 0.05 0.0
0.66 0.05 0.0
0.67 0.05 0.0
0.68 0.05 0.0
0.6900000000000001 0.05 0.0
0.7000000000000001 0.05 0.0
0.71 0.05 0.0
0.72 0.05 0.0
0.73 0.05 0.0
0.74 0.05 0.0
0.75 0.05 0.0
0.76 0.05 0.0
0.77 0.05 0.0
0.78 0.05 0.0
0.79 0.05 0.0
0.8 0.05 0.0
0.81 0.05 0.0
0.8200000000000001 0.05 0.0
0.8300000000000001 0.05 0.0
0.84 0.05 0.0
0.85 0.05 0.0
0.86 0.05 0.0
0.87 0.05 0.0
0.88 0.05 0.0
0.89 0.05 0.0
0.9 0.05 0.0
0.91 0.05 0.0
0.92 0.05 0.0
0.93 0.05 0.0
0.9400000000000001 0.05 0.0
0.9500000000000001 0.05 0.0
0.96 0.05 0.0
0.97 0.05 0.0
0.98 0.05 0.0
0.99 0.05 0.0
1.0 0.05 0.0
0.0 0.06 0.0
0.01 0.06 0.0
0.02 0.06 0.0
0.03 0.06 0.0
0.04 0.06 0.0
0.05 0.06 0.0
0.06 0.06 0.0
0.07 0.06 0.0
0.08 0.06 0.0
0.09 0.06 0.0
0.1 0.06 0.0
0.11 0.06 0.0
0.12 0.06 0.0
0.13 0.06 0.0
0.14 0.06 0.0
0.15 0.06 0.0
0.16 0.06 0.0
0.17 0.06 0.0
0.18 0.06 0.0
0.19 0.06 0.0
0.2 0.06 0.0
0.21 0.06 0.0
0.22 0.06 0.0
0.23 0.06 0.0
0.24 0.06 0.0
0.25 0.06 0.0
0.26 0.06 0.0
0.27 0.06 0.0
0.28 0.06 0.0
0.29 0.06 0.0
0.3 0.06 0.0
0.31 0.06 0.0
0.32 0.06 0.0
0.33 0.06 0.0
0.34 0.06 0.0
0.35000000000000003 0.06 0.0
0.36 0.06 0.0
0.37 0.06 0.0
0.38 0.06 0.0
0.39 0.06 0.0
0.4 0.06 0.0
0.41000000000000003 0.06 0.0
0.42 0.06 0.0
0.43 0.06 0.0
0.44 0.06 0.0
0.45 0.06 0.0
0.46 0.06 0.0
[...]
POINT_DATA  10201
FIELD  FlowField  5
Density    1 10201  double
9.203291322314282
9.199800902507405
9.143354910411276
8.946206362432354
8.561118991842964
7.998890841212361
7.286027691313345
6.452469154484094
5.569258088551921
4.749687648569573
4.089854354425833
3.6205196459359974
3.3148203292017113
3.1246936670313334
3.008010933806654
2.9367869041312993
2.894781462481628
2.8729531445291685
2.8661245114651943
2.8711242093127014
2.8858586493341045
2.9088546382955265
2.9390230064235388
2.975525873586133
3.017694135606887
3.064969943850557
3.116861464690289
3.1729032628004576
3.2326191731793275
3.2954871689211145
3.360908155700848
3.4281829666072046
3.4965038723601047
3.564968142502261
3.632620807935948
3.6985308302801254
3.761898555976292
3.822182589885794
3.8792227985728456
3.933327281002464
3.9852908763097634
4.0363258976941765
4.08791117647057
4.141593691893673
4.198793962651571
4.260662503907488
4.328012490483873
4.401326040452413
4.480811782033474
4.566485504645187
4.658250966665388
4.755967690976486
4.859501331505162
4.9687575918410145
5.0837028578001675
5.204374827130061
5.330885618634392
5.463418854045536
5.602221384223772
5.747589805535277
5.899851718885272
6.059341842773161
6.2263736339024796
6.401208035032988
6.584022392827252
6.774884453087352
6.973738483568313
7.180412480449737
7.394655936662593
7.616214839742343
7.844941921774226
8.080923638452036
8.324581440901362
8.576680393203585
8.838169703653346
9.109812198434504
9.39165181548201
9.682502817768722
9.97974756424446
10.279702307967188
10.57859104007025
10.87382980425836
11.165099819844137
11.454764832287434
11.747531525301985
12.049657928703306
12.36805238192666
12.709499334042334
13.080127933476957
13.485006570472896
13.927682814069005
14.409513710542754
14.928710755329776
15.479130187039328
16.049004516134687
16.620015813947703
17.167159551111155
17.65978616063645
18.064220322104376
18.34800588438697
18.455911093484204
8.835554150557051
8.857926673017456
8.864462624427349
8.739244856087641
8.414581719735411
7.893175887640743
7.202502451839455
6.378771277545396
5.5006454343649525
4.686114818002642
4.03196567914569
3.567868328117327
3.2662736704003175
3.0793089617649283
2.965409628442873
2.897066762371001
2.8582957538582945
2.8401422062214374
2.8374291866921397
2.8469533327547683
2.8665818950615987
2.894804045678982
2.930495635193841
2.9727848600370064
3.0209676255246887
3.074448315586969
3.132693613070921
3.195192790023784
3.2614212569377794
3.330806721914622
3.4026997082038273
3.4763525352074955
3.5509129378044872
3.625439725298664
3.698947451519779
3.7704840378189672
3.8392389064164862
3.904669520834325
3.9666231067186555
4.02542190430386
4.081880349890736
4.1372355089614095
4.192996673809596
4.250747277748392
4.3119488866516456
4.377793940236201
4.449133111023664
4.526476333827766
4.6100466696878435
4.699859395549507
4.795803033127628
4.897708315624823
5.005399885326506
5.118731225679399
5.237605847623788
5.361988108271366
5.491906367155748
5.627450251933363
5.76876300349706
5.916029347014232
6.069459125030215
6.229267034248239
6.395649232157847
6.5687583288265845
6.748679344391961
6.935410534569912
7.128854375712314
7.328824999980884
7.5350780916625935
7.747366335972394
7.965516406182521
8.189511270380642
8.419545577291688
8.656007849984423
8.899343334714224
9.149781807845994
9.406984373776359
9.669754265822235
9.936012839314722
10.20319672653548
10.469056612433702
10.732602994193272
10.994816830859987
11.258834945373527
11.529579136074265
11.813070115235597
12.115704996129493
12.443647632130459
12.802384118358141
13.196367726843473
13.628601046586006
14.100025581712377
14.60865169826064
15.14845041377329
15.708151898422997
16.270248364546624
16.810570630427456
17.29885740159901
17.700926905540697
17.982924899129035
18.089861464037618
7.980447141045931
8.053976253896122
8.189339434374858
8.219434509241616
8.032220570763162
7.60644800564607
6.9675576980758684
6.166632431277222
5.302289066832655
4.504059784434281
3.8690174854520873
3.4227990894402787
3.135635938573956
2.9601684679089484
2.8564068089363293
2.7981398314553383
2.770061199468413
2.7634378784726343
2.7730819496015178
2.7956870937143763
2.82898813783576
2.871332702652926
2.921449212889563
2.978311243516971
3.0410522327815253
3.1089080467316643
3.1811752128207607
3.257177669185449
3.336237934520967
3.4176511264197558
3.5006627897359257
3.584454053280994
3.668139833193765
3.7507869794099773
3.8314586029544397
3.909287562475681
3.983575837653672
4.053907753796959
4.120255671767381
4.183050417723897
4.24318982712138
4.301970276378039
4.360946553876518
4.421747864531549
4.485892170440226
4.5546402394697125
4.628915186597768
4.709290962301771
4.796034447494763
4.889177015344752
4.988592786160234
5.094068115385553
5.205355182068231
5.3222087762958115
5.444408692440801
5.571771126746973
5.704152170054934
5.841445707756957
5.983577269536703
6.130494813821567
6.282157133250878
6.4385205102526015
6.599524399822061
6.765077228269344
6.935043819599873
7.109236412836061
7.28741156959857
7.469275249368729
7.654497597130179
7.84273714514603
8.033670927134152
8.227022684624762
8.422577153442232
8.62016710879869
8.81962564935154
9.020713007816163
9.223053943392618
9.42614695539221
9.629508188776928
9.832972175127741
10.037092223072992
10.243505613737497
10.455113165820176
10.675991739335338
10.911070095616296
11.165680024773486
11.445134258878541
11.75437769893957
12.09768072208503
12.478350951262525
12.898381706374224
13.357947310202498
13.854688497944762
14.382775421136275
14.931785567216462
15.485507661461348
16.020938515936244
16.508036002469353
16.911147752966723
17.193173597118864
17.299367869650645
7.046383632732102
7.16039907470593
7.404992500104893
7.580656807470605
7.533183540100993
7.207378364342491
6.620721378521113
5.843052641291032
4.999181472852474
4.230972021730101
3.631783178446956
3.2192604209848734
2.9598853191335257
2.8070467292075914
2.7230159218285346
2.683369137572108
2.6736946616172665
2.685523293789084
2.713608366490856
2.7544431128367184
2.805499975078272
2.8648335991593297
2.930864057300064
3.0022540976559093
3.077838533558709
3.156583134232657
3.2375592181348436
3.319924970752363
3.402907984308086
3.4857867084014544
3.567871660248146
3.6484901261515756
3.726980141667253
3.8027001161580896
3.875059047267189
3.943568672130948
4.007913453371202
4.068027965031528
4.124165672712071
4.176940404086644
4.227323904734871
4.276590525805503
4.326212085691828
4.3777190756517115
4.432554299184767
4.49194781233034
4.556835948831924
4.627834146454696
4.7052584155598485
4.789179518587718
4.879490566919167
4.975972039647829
5.078344768014137
5.186307727824207
5.299561665777052
5.4178214626355565
5.540820405705418
5.6683090312887865
5.800050489259455
5.935813773899433
6.075365756320461
6.218462742004588
6.364842222092246
6.514215539834092
6.666262304084538
6.820627496969631
6.976922282205997
7.134729460079626
7.293614277539977
7.4531408596389905
7.612893921272546
7.7725047703694266
7.93168017353717
8.090232838020398
8.248113621299293
8.405448482486616
8.56258701982063
8.7201717794137
8.87923446714326
9.041313781503524
9.20857129616659
9.38386569505915
9.570745268140648
9.773337767957148
9.996147389842877
10.243780949025176
10.520682981404338
10.830901419092294
11.17782325090108
11.56388705028694
11.990251504854996
12.456351953112351
12.959289737609748
13.493004607815767
14.047203636659628
14.606123462020477
15.147359903973143
15.64113185624386
16.05078387583439
16.336163045601047
16.442713457722224
6.237781758539711
6.374934537624734
6.687522007747616
6.963540824474956
7.017455471028802
6.7615175119758355
6.20696814148873
5.446299298266901
4.63047877799408
3.908032556658619
3.3620610477780626
2.99859158433434
2.7795280129603728
2.659301738135568
2.602791681480606
2.5875200132567784
2.600004078006466
2.632015740554415
2.678196023848346
2.7347669479658148
2.798868259276738
2.8682145294369827
2.9409166055782796
3.0153900341708932
3.090309289816245
3.164583657717416
3.237339807698204
3.307902189822295
3.3757672017832263
3.4405711843188675
3.502055634944004
3.5600352355268794
3.614374964813487
3.664981512677445
3.711811601046799
3.7548962195097983
3.7943760569069456
3.8305404889832033
3.8638611238079834
3.8950113902154597
3.9248655893652185
3.954473409928289
3.985008710278173
4.017694983081202
4.053715241397786
4.094120372345618
4.139753941461938
4.191209131095736
4.2488244392821
4.312713153765839
4.382813325984872
4.458943159198483
4.540850326180957
4.628249402170875
4.720846443703353
4.818352566149875
4.920489357316885
5.026988837586276
5.13759010847784
5.252034229754538
5.3700584057336425
5.491390279486996
5.615743001782629
5.742811714827217
5.872272123561219
6.003781876793774
6.136985505498609
6.271523637073867
6.407047101264991
6.543236347575342
6.679826299925266
6.816636372520371
6.953604882352885
7.0908266504113815
7.228592474519731
7.367429735196777
7.508144800941451
7.651869564925017
7.800114644066579
7.954827908581885
8.118447770391061
8.293930890309147
8.48473415891105
8.694736743037783
8.92809226851671
9.18900316284134
9.481502491275252
9.809221257701942
10.175073772005579
10.580925513576007
11.027234085828354
11.512609545032799
12.033245583374654
12.582187447347803
13.148477836654461
13.716295662044494
14.264066242035582
14.76333820074687
15.177941799189092
15.465732181018486
15.572403466400903
5.592917973919814
5.742839454921852
6.094322956397512
6.428353286066385
6.536296854103691
6.30881743111697
5.761806269669139
5.014328468795931
4.237534566383429
3.5766741179130825
3.0980014828596887
2.7940435989104833
2.6224747677867493
2.539292477896809
2.512165014691279
2.5205701912943357
2.5519578638922416
2.5983848406108154
2.654467826180874
2.7162979980043
2.7808911410477917
2.8459118182617615
2.9095347179955553
2.9703719227389653
3.0274273533082168
3.0800571195753825
3.12792521684419
3.1709512339785615
3.2092517038498785
3.2430798306932616
3.2727696876348844
3.2986906927992665
3.321216503841975
3.3407099080472626
3.357522496042964
3.3720055942543743
3.3845276728640092
3.395493553398195
3.405362081810333
3.4146607445171426
3.4239966518126903
3.434062204305781
3.4456308360100008
3.4595359768058858
3.4766283632655863
3.497714492101654
3.5234890451978442
3.554479856323919
3.591020747553756
3.6332569329166913
3.6811762286023653
3.7346530471015638
3.7934925544003284
3.8574668746634173
3.9263403420036913
3.999884400948231
4.077884436027327
4.160141104660462
4.246468362907559
4.336689813664466
4.430634521253584
4.528133100526645
4.629014691242669
4.733105328624551
4.8402281758561445
4.950206059311891
5.062866714260872
5.178051095434181
5.2956250309030155
5.415494389681752
5.537623782623394
5.662058620764738
5.788950126292532
5.918582708243654
6.051403168550372
6.188051736904343
6.3293961136474435
6.476571296900267
6.631028626178189
6.79459430882504
6.969528163052503
7.158562239041081
7.364900734290009
7.5921677551836595
7.844273611518969
8.125204005710223
8.438819053693237
8.788569461649281
9.177098898702775
9.605849502441238
10.074645619138005
10.581221492114485
11.120681234923925
11.684937532725645
12.262248995236089
12.836870174539762
13.388440537897697
13.890447495931939
14.307980815744315
14.597475061082562
14.704282011945912
5.090706902527719
5.249142729027071
5.623207603858647
5.982619197686166
6.1016445765080825
5.865740150701489
5.309448983609166
4.578867548488458
3.8546625820673066
3.268128484601772
2.8644114069884514
2.6230061843708716
2.49879226539778
2.45007329331026
2.4474788415175457
2.472495219507785
2.513644565430152
2.5635256332237772
2.617091431804623
2.6707531366776776
2.7219275103900835
2.76880139114613
2.810194863525194
2.845463211789814
2.8744089229156495
2.8971925222348616
2.9142410643013075
2.926158372194176
2.9336430414698986
2.9374198112525582
2.9381880411474754
2.9365885271520127
2.9331874280391528
2.9284741565966272
2.9228690055640922
2.9167361368218234
2.910398366007273
2.9041518140019296
2.8982805964775284
2.893073430185045
2.8888440797369115
2.8859549310268457
2.88483805513028
2.8860035466043277
2.890024724943513
2.897496562392527
2.9089754073852268
2.9249180090907307
2.945639246182126
2.9712996926000663
3.0019217435919856
3.03742383102891
3.0776598992941953
3.1224544449540974
3.171628458366873
3.225015735669801
3.2824712755820444
3.3438741396256737
3.4091269374476583
3.478153575664524
3.55089639562747
3.6273134397521565
3.7073763371816795
3.7910691554356406
3.8783884882087105
3.969345013087121
4.06396673549138
4.162304121651098
4.264437306857356
4.370485536600189
4.4806189428226935
4.595072679982554
4.714163381412246
4.838307900273831
4.968044482149417
5.104057065521876
5.2472045009563075
5.39855804103782
5.559451358982597
5.731544451377676
5.916892543037026
6.117998534559226
6.33783062957226
6.579791674456969
6.847590050899772
7.14505226424316
7.475926997615661
7.843533326796223
8.250290506341138
8.697262472411174
9.183686453042714
9.70647913592248
10.259765680545097
10.834538487311598
11.418551992698625
11.996369836631544
12.549010268992433
13.052074754354358
13.472090130194188
13.764048765730696
13.871649036384682
4.701750334333717
4.8666885813696545
5.252111725047653
5.6103656606396335
5.706139113503008
5.437265064177968
4.867226699186799
4.163981142097643
3.5051189502555924
2.999785267289594
2.671175076450213
2.488191067754194
2.4049237163453494
2.382778362288487
2.3955654406873967
2.426966443972697
2.466902737082454
2.508975282328245
2.549019367830458
2.584347103928444
2.613339877920818
2.635200771538325
2.6497733736189466
2.657386044228349
2.6587082114652603
2.6546187915254977
2.6460919826524947
2.6341058076745902
2.61957625732402
2.6033165642917773
2.586018296625097
2.568249250141298
2.5504626220431525
2.5330123730963505
2.51617065242055
2.500144415955557
2.4850898579642653
2.471124992723948
2.458342462269867
2.4468257749093825
2.4366717148332766
2.4280187928688943
2.421076582324314
2.416145666113703
2.4136162993895556
2.413938836169629
2.4175699567357003
2.4249102963332474
2.4362538209921127
2.4517638266811828
2.4714784727070196
2.495337878274112
2.523220265966741
2.554976425542078
2.5904565503917665
2.629527986517534
2.6720851382025774
2.718053750828439
2.767391714228257
2.8200880347968864
2.876161089355464
2.9356568528749385
2.998647512751175
3.0652307193017934
3.135529639298224
3.2096939468971337
3.2879018829443707
3.370363520297191
3.4573253763531455
3.549076510619226
3.6459562327295516
3.748363525984918
3.856768294433879
3.971724615117134
4.093886405960936
4.224026476129734
4.363061018915965
4.512083190361458
4.672410419789881
4.845647420597584
5.033756988463924
5.2391184986252295
5.4645572212910185
5.713330174507017
5.989004355213125
6.295284795043335
6.6358130935959565
7.013758915459902
7.431289372092838
7.889072167980362
8.38578570264946
8.917649134192297
9.47805546433437
10.057427343526744
10.643384497802368
11.221110222710996
11.773209248674805
12.277432074264373
12.70146005928956
12.998208735474988
13.107866232904197
4.399758368759825
4.568924531785412
4.954732584457378
5.289392983930888
5.338305583444127
5.026276100725921
4.4487390533762206
3.7858446219747792
3.200881493459513
2.776813780974041
2.5170895294530284
2.3834657009318816
2.3312396405249447
2.325603635346728
2.3437918740294963
2.371957918977424
2.401826231086452
2.4284779678780213
2.4491060535452878
2.4623274358293497
2.4677662140545404
2.465759125324119
2.4571190951675366
2.442935637037184
2.4244098637450957
2.402727406687018
2.378971108589502
2.35407123993376
2.328786997328915
2.3037107148315465
2.2792859399517504
2.2558318378882474
2.2335684548560932
2.212639439237489
2.1931304977028545
2.175083156343597
2.158504527917895
2.1433749407214164
2.129656380588566
2.117305275477676
2.1062924627915462
2.096630544964199
2.0884042852488776
2.0817946438339505
2.077084463116762
2.074636924355444
2.0748474900142684
2.078082127127257
2.084621835442498
2.0946307276669063
2.1081539092996184
2.1251394593805766
2.1454724414715534
2.169009409599102
2.1956063613040055
2.225137882511922
2.257508354094087
2.2926573541594073
2.3305614381816184
2.3712340056354146
2.4147244055830086
2.461116983543166
2.5105304685390957
2.56311792050165
2.6190673661876076
2.678603212219093
2.7419885127743875
2.809528170508374
2.881573151235398
2.958525791621864
3.0408462797727664
3.1290603983523635
3.223768651747109
3.3256570074963836
3.435509750593114
3.554225513293427
3.682838568611516
3.822548858623969
3.9747649527969395
4.141161621137425
4.323745376620426
4.524911598456908
4.747478885406329
4.994685500783817
5.270077762020936
5.577328848067127
5.920020544157202
6.3011930070166775
6.722749062326393
7.184930001644876
7.685844487675647
8.221069022244514
8.783423057059212
9.363040275337989
9.94779366107271
10.523883361643431
11.075751888716491
11.583188460202884
12.014397529803219
12.319243965753358
12.43251667639305
4.162281403781501
4.332307764648671
4.70680843588451
5.0002958121457795
4.9902551559221155
4.637089793775747
4.064260339020146
3.4530242430366678
2.9447487220904063
2.596238957772731
2.395218020073497
2.299789954082566
2.268070816282453
2.2695192252335965
2.284984905392561
2.3033319178960787
2.318388135534938
2.32699871278858
2.327904291272251
2.3210714662176377
2.3072458301747263
2.287621506631484
2.26358635483147
2.2365304770646164
2.2077159625925873
2.178203339244397
2.148825293784861
2.120194950804472
2.092735102621252
2.0667164048520856
2.04229573788415
2.0195494760495065
1.9984993740813326
1.9791307741793465
1.961403955488702
1.945260061441712
1.9306235313198996
1.9174035361239412
1.9054975073658569
1.8948000866777264
1.8852201194841742
1.876706055890154
1.869276118237549
1.8630447264253234
1.8582333452214808
1.8551554437609028
1.8541734597223356
1.8556379313007183
1.859828243624021
1.86691415350358
1.8769473160161287
1.8898792184525843
1.9055938495921854
1.9239427555942699
1.9447743503336097
1.9679544689674275
1.993378716946706
2.020978722910477
2.0507245713776325
2.082625230602256
2.1167282065330824
2.1531191710753337
2.1919219844449884
2.233299335812041
2.2774541239549198
2.3246316542510623
2.375122712617183
2.429267573716028
2.487461001714847
2.5501583017084837
2.6178824824100313
2.69123260626737
2.7708934460716566
2.8576466918285983
2.9523842301897147
3.056124544593416
3.1700341317498753
3.2954568072718247
3.4339540226848553
3.5873570509413213
3.757825705577191
3.9479015364939314
4.160543511254328
4.399129897678826
4.667358226137647
4.969034486832472
5.307819747348379
5.6867393371958705
6.107499740051476
6.569914386714258
7.071464923237445
7.607027871235029
8.168873942478974
8.747025757030956
9.3299307243338
9.905138219747792
10.459031460877856
10.97308864753698
11.41526199814796
11.731473607822178
11.8497601358966
3.9706794986004175
4.137369545133396
4.489323199973956
4.730207351583566
4.659417728732648
4.274941795416311
3.7201082173336664
3.1676248301508814
2.733468350728856
2.451148556546197
2.2972097330701553
2.229040828698958
2.2086783289481713
2.2100856396535504
2.2177843772132144
2.2234237752359696
2.2229995083024567
2.215102323431572
2.1998716017482716
2.178334859841737
2.1519561861695102
2.1223171647754384
2.0909005188167296
2.058961521524913
2.027473362221272
1.9971264825312858
1.9683619777910766
1.9414231313797303
1.9164104901314483
1.893331024368344
1.8721367901825925
1.85275203823957
1.8350898295755462
1.8190601490678486
1.8045717259189034
1.7915297516374724
1.7798317447744763
1.7693640542862905
1.760001820788696
1.7516153285697045
1.7440850967873522
1.7373261973187433
1.7313187757781323
1.7261370335560444
1.7219649573935958
1.719087212276086
1.7178505556484305
1.7186035373211435
1.7216334205975494
1.7271213548339337
1.7351279310024998
1.745607563906856
1.758440336860724
1.7734680416804949
1.7905251221422611
1.8094607330463954
1.83015217223092
1.8525118085609522
1.8764899141313167
1.9020753519636822
1.9292954482157956
1.9582158569666241
1.9889408714733734
2.0216144259711673
2.0564219231710714
2.093592976517927
2.133405144369482
2.176188737470234
2.222332789805922
2.2722922905035943
2.326596786266606
2.3858604901235934
2.4507940888112
2.522218564931289
2.601081603770125