# vtk DataFile Version 3.0 
shock_diffraction_time_series_454_.vtk
ASCII
DATASET UNSTRUCTURED_GRID
POINTS         10201 double
0.0 0.0 0.0
0.01 0.0 0.0
0.02 0.0 0.0
0.03 0.0 0.0
0.04 0.0 0.0
0.05 0.0 0.0
0.06 0.0 0.0
0.07 0.0 0.0
0.08 0.0 0.0
0.09 0.0 0.0
0.1 0.0 0.0
0.11 0.0 0.0
0.12 0.0 0.0
0.13 0.0 0.0
0.14 0.0 0.0
0.15 0.0 0.0
0.16 0.0 0.0
0.17 0.0 0.0
0.18 0.0 0.0
0.19 0.0 0.0
0.2 0.0 0.0
0.21 0.0 0.0
0.22 0.0 0.0
0.23 0.0 0.0
0.24 0.0 0.0
0.25 0.0 0.0
0.26 0.0 0.0
0.27 0.0 0.0
0.28 0.0 0.0
0.29 0.0 0.0
0.3 0.0 0.0
0.31 0.0 0.0
0.32 0.0 0.0
0.33 0.0 0.0
0.34 0.0 0.0
0.35000000000000003 0.0 0.0
0.36 0.0 0.0
0.37 0.0 0.0
0.38 0.0 0.0
0.39 0.0 0.0
0.4 0.0 0.0
0.41000000000000003 0.0 0.0
0.42 0.0 0.0
0.43 0.0 0.0
0.44 0.0 0.0
0.45 0.0 0.0
0.46 0.0 0.0
0.47000000000000003 0.0 0.0
0.48 0.0 0.0
0.49 0.0 0.0
0.5 0.0 0.0
0.51 0.0 0.0
0.52 0.0 0.0
0.53 0.0 0.0
0.54 0.0 0.0
0.55 0.0 0.0
0.56 0.0 0.0
0.5700000000000001 0.0 0.0
0.58 0.0 0.0
0.59 0.0 0.0
0.6 0.0 0.0
0.61 0.0 0.0
0.62 0.0 0.0
0.63 0.0 0.0
0.64 0.0 0.0
0.65 0.0 0.0
0.66 0.0 0.0
0.67 0.0 0.0
0.68 0.0 0.0
0.6900000000000001 0.0 0.0
0.7000000000000001 0.0 0.0
0.71 0.0 0.0
0.72 0.0 0.0
0.73 0.0 0.0
0.74 0.0 0.0
0.75 0.0 0.0
0.76 0.0 0.0
0.77 0.0 0.0
0.78 0.0 0.0
0.79 0.0 0.0
0.8 0.0 0.0
0.81 0.0 0.0
0.8200000000000001 0.0 0.0
0.8300000000000001 0.0 0.0
0.84 0.0 0.0
0.85 0.0 0.0
0.86 0.0 0.0
0.87 0.0 0.0
0.88 0.0 0.0
0.89 0.0 0.0
0.9 0.0 0.0
0.91 0.0 0.0
0.92 0.0 0.0
0.93 0.0 0.0
0.9400000000000001 0.0 0.0
0.9500000000000001 0.0 0.0
0.96 0.0 0.0
0.97 0.0 0.0
0.98 0.0 0.0
0.99 0.0 0.0
1.0 0.0 0.0
0.0 0.01 0.0
0.01 0.01 0.0
0.02 0.01 0.0
0.03 0.01 0.0
0.04 0.01 0.0
0.05 0.01 0.0
0.06 0.01 0.0
0.07 0.01 0.0
0.08 0.01 0.0
0.09 0.01 0.0
0.1 0.01 0.0
0.11 0.01 0.0
0.12 0.01 0.0
0.13 0.01 0.0
0.14 0.01 0.0
0.15 0.01 0.0
0.16 0.01 0.0
0.17 0.01 0.0
0.18 0.01 0.0
0.19 0.01 0.0
0.2 0.01 0.0
0.21 0.01 0.0
0.22 0.01 0.0
0.23 0.01 0.0
0.24 0.01 0.0
0.25 0.01 0.0
0.26 0.01 0.0
0.27 0.01 0.0
0.28 0.01 0.0
0.29 0.01 0.0
0.3 0.01 0.0
0.31 0.01 0.0
0.32 0.01 0.0
0.33 0.01 0.0
0.34 0.01 0.0
0.35000000000000003 0.01 0.0
0.36 0.01 0.0
0.37 0.01 0.0
0.38 0.01 0.0
0.39 0.01 0.0
0.4 0.01 0.0
0.41000000000000003 0.01 0.0
0.42 0.01 0.0
0.43 0.01 0.0
0.44 0.01 0.0
0.45 0.01 0.0
0.46 0.01 0.0
0.47000000000000003 0.01 0.0
0.48 0.01 0.0
0.49 0.01 0.0
0.5 0.01 0.0
0.51 0.01 0.0
0.52 0.01 0.0
0.53 0.01 0.0
0.54 0.01 0.0
0.55 0.01 0.0
0.56 0.01 0.0
0.5700000000000001 0.01 0.0
0.58 0.01 0.0
0.59 0.01 0.0
0.6 0.01 0.0
0.61 0.01 0.0
0.62 0.01 0.0
0.63 0.01 0.0
0.64 0.01 0.0
0.65 0.01 0.0
0.66 0.01 0.0
0.67 0.01 0.0
0.68 0.01 0.0
0.6900000000000001 0.01 0.0
0.7000000000000001 0.01 0.0
0.71 0.01 0.0
0.72 0.01 0.0
0.73 0.01 0.0
0.74 0.01 0.0
0.75 0.01 0.0
0.76 0.01 0.0
0.77 0.01 0.0
0.78 0.01 0.0
0.79 0.01 0.0
0.8 0.01 0.0
0.81 0.01 0.0
0.8200000000000001 0.01 0.0
0.8300000000000001 0.01 0.0
0.84 0.01 0.0
0.85 0.01 0.0
0.86 0.01 0.0
0.87 0.01 0.0
0.88 0.01 0.0
0.89 0.01 0.0
0.9 0.01 0.0
0.91 0.01 0.0
0.92 0.01 0.0
0.93 0.01 0.0
0.9400000000000001 0.01 0.0
0.9500000000000001 0.01 0.0
0.96 0.01 0.0
0.97 0.01 0.0
0.98 0.01 0.0
0.99 0.01 0.0
1.0 0.01 0.0
0.0 0.02 0.0
0.01 0.02 0.0
0.02 0.02 0.0
0.03 0.02 0.0
0.04 0.02 0.0
0.05 0.02 0.0
0.06 0.02 0.0
0.07 0.02 0.0
0.08 0.02 0.0
0.09 0.02 0.0
0.1 0.02 0.0
0.11 0.02 0.0
0.12 0.02 0.0
0.13 0.02 0.0
0.14 0.02 0.0
0.15 0.02 0.0
0.16 0.02 0.0
0.17 0.02 0.0
0.18 0.02 0.0
0.19 0.02 0.0
0.2 0.02 0.0
0.21 0.02 0.0
0.22 0.02 0.0
0.23 0.02 0.0
0.24 0.02 0.0
0.25 0.02 0.0
0.26 0.02 0.0
0.27 0.02 0.0
0.28 0.02 0.0
0.29 0.02 0.0
0.3 0.02 0.0
0.31 0.02 0.0
0.32 0.02 0.0
0.33 0.02 0.0
0.34 0.02 0.0
0.35000000000000003 0.02 0.0
0.36 0.02 0.0
0.37 0.02 0.0
0.38 0.02 0.0
0.39 0.02 0.0
0.4 0.02 0.0
0.41000000000000003 0.02 0.0
0.42 0.02 0.0
0.43 0.02 0.0
0.44 0.02 0.0
0.45 0.02 0.0
0.46 0.02 0.0
0.47000000000000003 0.02 0.0
0.48 0.02 0.0
0.49 0.02 0.0
0.5 0.02 0.0
0.51 0.02 0.0
0.52 0.02 0.0
0.53 0.02 0.0
0.54 0.02 0.0
0.55 0.02 0.0
0.56 0.02 0.0
0.5700000000000001 0.02 0.0
0.58 0.02 0.0
0.59 0.02 0.0
0.6 0.02 0.0
0.61 0.02 0.0
0.62 0.02 0.0
0.63 0.02 0.0
0.64 0.02 0.0
0.65 0.02 0.0
0.66 0.02 0.0
0.67 0.02 0.0
0.68 0.02 0.0
0.6900000000000001 0.02 0.0
0.7000000000000001 0.02 0.0
0.71 0.02 0.0
0.72 0.02 0.0
0.73 0.02 0.0
0.74 0.02 0.0
0.75 0.02 0.0
0.76 0.02 0.0
0.77 0.02 0.0
0.78 0.02 0.0
0.79 0.02 0.0
0.8 0.02 0.0
0.81 0.02 0.0
0.8200000000000001 0.02 0.0
0.8300000000000001 0.02 0.0
0.84 0.02 0.0
0.85 0.02 0.0
0.86 0.02 0.0
0.87 0.02 0.0
0.88 0.02 0.0
0.89 0.02 0.0
0.9 0.02 0.0
0.91 0.02 0.0
0.92 0.02 0.0
0.93 0.02 0.0
0.9400000000000001 0.02 0.0
0.9500000000000001 0.02 0.0
0.96 0.02 0.0
0.97 0.02 0.0
0.98 0.02 0.0
0.99 0.02 0.0
1.0 0.02 0.0
0.0 0.03 0.0
0.01 0.03 0.0
0.02 0.03 0.0
0.03 0.03 0.0
0.04 0.03 0.0
0.05 0.03 0.0
0.06 0.03 0.0
0.07 0.03 0.0
0.08 0.03 0.0
0.09 0.03 0.0
0.1 0.03 0.0
0.11 0.03 0.0
0.12 0.03 0.0
0.13 0.03 0.0
0.14 0.03 0.0
0.15 0.03 0.0
0.16 0.03 0.0
0.17 0.03 0.0
0.18 0.03 0.0
0.19 0.03 0.0
0.2 0.03 0.0
0.21 0.03 0.0
0.22 0.03 0.0
0.23 0.03 0.0
0.24 0.03 0.0
0.25 0.03 0.0
0.26 0.03 0.0
0.27 0.03 0.0
0.28 0.03 0.0
0.29 0.03 0.0
0.3 0.03 0.0
0.31 0.03 0.0
0.32 0.03 0.0
0.33 0.03 0.0
0.34 0.03 0.0
0.35000000000000003 0.03 0.0
0.36 0.03 0.0
0.37 0.03 0.0
0.38 0.03 0.0
0.39 0.03 0.0
0.4 0.03 0.0
0.41000000000000003 0.03 0.0
0.42 0.03 0.0
0.43 0.03 0.0
0.44 0.03 0.0
0.45 0.03 0.0
0.46 0.03 0.0
0.47000000000000003 0.03 0.0
0.48 0.03 0.0
0.49 0.03 0.0
0.5 0.03 0.0
0.51 0.03 0.0
0.52 0.03 0.0
0.53 0.03 0.0
0.54 0.03 0.0
0.55 0.03 0.0
0.56 0.03 0.0
0.5700000000000001 0.03 0.0
0.58 0.03 0.0
0.59 0.03 0.0
0.6 0.03 0.0
0.61 0.03 0.0
0.62 0.03 0.0
0.63 0.03 0.0
0.64 0.03 0.0
0.65 0.03 0.0
0.66 0.03 0.0
0.67 0.03 0.0
0.68 0.03 0.0
0.6900000000000001 0.03 0.0
0.7000000000000001 0.03 0.0
0.71 0.03 0.0
0.72 0.03 0.0
0.73 0.03 0.0
0.74 0.03 0.0
0.75 0.03 0.0
0.76 0.03 0.0
0.77 0.03 0.0
0.78 0.03 0.0
0.79 0.03 0.0
0.8 0.03 0.0
0.81 0.03 0.0
0.8200000000000001 0.03 0.0
0.8300000000000001 0.03 0.0
0.84 0.03 0.0
0.85 0.03 0.0
0.86 0.03 0.0
0.87 0.03 0.0
0.88 0.03 0.0
0.89 0.03 0.0
0.9 0.03 0.0
0.91 0.03 0.0
0.92 0.03 0.0
0.93 0.03 0.0
0.9400000000000001 0.03 0.0
0.9500000000000001 0.03 0.0
0.96 0.03 0.0
0.97 0.03 0.0
0.98 0.03 0.0
0.99 0.03 0.0
1.0 0.03 0.0
0.0 0.04 0.0
0.01 0.04 0.0
0.02 0.04 0.0
0.03 0.04 0.0
0.04 0.04 0.0
0.05 0.04 0.0
0.06 0.04 0.0
0.07 0.04 0.0
0.08 0.04 0.0
0.09 0.04 0.0
0.1 0.04 0.0
0.11 0.04 0.0
0.12 0.04 0.0
0.13 0.04 0.0
0.14 0.04 0.0
0.15 0.04 0.0
0.16 0.04 0.0
0.17 0.04 0.0
0.18 0.04 0.0
0.19 0.04 0.0
0.2 0.04 0.0
0.21 0.04 0.0
0.22 0.04 0.0
0.23 0.04 0.0
0.24 0.04 0.0
0.25 0.04 0.0
0.26 0.04 0.0
0.27 0.04 0.0
0.28 0.04 0.0
0.29 0.04 0.0
0.3 0.04 0.0
0.31 0.04 0.0
0.32 0.04 0.0
0.33 0.04 0.0
0.34 0.04 0.0
0.35000000000000003 0.04 0.0
0.36 0.04 0.0
0.37 0.04 0.0
0.38 0.04 0.0
0.39 0.04 0.0
0.4 0.04 0.0
0.41000000000000003 0.04 0.0
0.42 0.04 0.0
0.43 0.04 0.0
0.44 0.04 0.0
0.45 0.04 0.0
0.46 0.04 0.0
0.47000000000000003 0.04 0.0
0.48 0.04 0.0
0.49 0.04 0.0
0.5 0.04 0.0
0.51 0.04 0.0
0.52 0.04 0.0
0.53 0.04 0.0
0.54 0.04 0.0
0.55 0.04 0.0
0.56 0.04 0.0
0.5700000000000001 0.04 0.0
0.58 0.04 0.0
0.59 0.04 0.0
0.6 0.04 0.0
0.61 0.04 0.0
0.62 0.04 0.0
0.63 0.04 0.0
0.64 0.04 0.0
0.65 0.04 0.0
0.66 0.04 0.0
0.67 0.04 0.0
0.68 0.04 0.0
0.6900000000000001 0.04 0.0
0.7000000000000001 0.04 0.0
0.71 0.04 0.0
0.72 0.04 0.0
0.73 0.04 0.0
0.74 0.04 0.0
0.75 0.04 0.0
0.76 0.04 0.0
0.77 0.04 0.0
0.78 0.04 0.0
0.79 0.04 0.0
0.8 0.04 0.0
0.81 0.04 0.0
0.8200000000000001 0.04 0.0
0.8300000000000001 0.04 0.0
0.84 0.04 0.0
0.85 0.04 0.0
0.86 0.04 0.0
0.87 0.04 0.0
0.88 0.04 0.0
0.89 0.04 0.0
0.9 0.04 0.0
0.91 0.04 0.0
0.92 0.04 0.0
0.93 0.04 0.0
0.9400000000000001 0.04 0.0
0.9500000000000001 0.04 0.0
0.96 0.04 0.0
0.97 0.04 0.0
0.98 0.04 0.0
0.99 0.04 0.0
1.0 0.04 0.0
0.0 0.05 0.0
0.01 0.05 0.0
0.02 0.05 0.0
0.03 0.05 0.0
0.04 0.05 0.0
0.05 0.05 0.0
0.06 0.05 0.0
0.07 0.05 0.0
0.08 0.05 0.0
0.09 0.05 0.0
0.1 0.05 0.0
0.11 0.05 0.0
0.12 0.05 0.0
0.13 0.05 0.0
0.14 0.05 0.0
0.15 0.05 0.0
0.16 0.05 0.0
0.17 0.05 0.0
0.18 0.05 0.0
0.19 0.05 0.0
0.2 0.05 0.0
0.21 0.05 0.0
0.22 0.05 0.0
0.23 0.05 0.0
0.24 0.05 0.0
0.25 0.05 0.0
0.26 0.05 0.0
0.27 0.05 0.0
0.28 0.05 0.0
0.29 0.05 0.0
0.3 0.05 0.0
0.31 0.05 0.0
0.32 0.05 0.0
0.33 0.05 0.0
0.34 0.05 0.0
0.35000000000000003 0.05 0.0
0.36 0.05 0.0
0.37 0.05 0.0
0.38 0.05 0.0
0.39 0.05 0.0
0.4 0.05 0.0
0.41000000000000003 0.05 0.0
0.42 0.05 0.0
0.43 0.05 0.0
0.44 0.05 0.0
0.45 0.05 0.0
0.46 0.05 0.0
0.47000000000000003 0.05 0.0
0.48 0.05 0.0
0.49 0.05 0.0
0.5 0.05 0.0
0.51 0.05 0.0
0.52 0.05 0.0
0.53 0.05 0.0
0.54 0.05 0.0
0.55 0.05 0.0
0.56 0.05 0.0
0.5700000000000001 0.05 0.0
0.58 0.05 0.0
0.59 0.05 0.0
0.6 0.05 0.0
0.61 0.05 0.0
0.62 0.05 0.0
0.63 0.05 0.0
0.64 0.05 0.0
0.65 0.05 0.0
0.66 0.05 0.0
0.67 0.05 0.0
0.68 0.05 0.0
0.6900000000000001 0.05 0.0
0.7000000000000001 0.05 0.0
0.71 0.05 0.0
0.72 0.05 0.0
0.73 0.05 0.0
0.74 0.05 0.0
0.75 0.05 0.0
0.76 0.05 0.0
0.77 0.05 0.0
0.78 0.05 0.0
0.79 0.05 0.0
0.8 0.05 0.0
0.81 0.05 0.0
0.8200000000000001 0.05 0.0
0.8300000000000001 0.05 0.0
0.84 0.05 0.0
0.85 0.05 0.0
0.86 0.05 0.0
0.87 0.05 0.0
0.88 0.05 0.0
0.89 0.05 0.0
0.9 0.05 0.0
0.91 0.05 0.0
0.92 0.05 0.0
0.93 0.05 0.0
0.9400000000000001 0.05 0.0
0.9500000000000001 0.05 0.0
0.96 0.05 0.0
0.97 0.05 0.0
0.98 0.05 0.0
0.99 0.05 0.0
1.0 0.05 0.0
0.0 0.06 0.0
0.01 0.06 0.0
0.02 0.06 0.0
0.03 0.06 0.0
0.04 0.06 0.0
0.05 0.06 0.0
0.06 0.06 0.0
0.07 0.06 0.0
0.08 0.06 0.0
0.09 0.06 0.0
0.1 0.06 0.0
0.11 0.06 0.0
0.12 0.06 0.0
0.13 0.06 0.0
0.14 0.06 0.0
0.15 0.06 0.0
0.16 0.06 0.0
0.17 0.06 0.0
0.18 0.06 0.0
0.19 0.06 0.0
0.2 0.06 0.0
0.21 0.06 0.0
0.22 0.06 0.0
0.23 0.06 0.0
0.24 0.06 0.0
0.25 0.06 0.0
0.26 0.06 0.0
0.27 0.06 0.0
0.28 0.06 0.0
0.29 0.06 0.0
0.3 0.06 0.0
0.31 0.06 0.0
0.32 0.06 0.0
0.33 0.06 0.0
0.34 0.06 0.0
0.35000000000000003 0.06 0.0
0.36 0.06 0.0
0.37 0.06 0.0
0.38 0.06 0.0
0.39 0.06 0.0
0.4 0.06 0.0
0.41000000000000003 0.06 0.0
0.42 0.06 0.0
0.43 0.06 0.0
0.44 0.06 0.0
0.45 0.06 0.0
0.46 0.06 0.0
[...]
POINT_DATA  10201
FIELD  FlowField  5
Density    1 10201  double
8.926800944465976
8.851724000020516
8.619679405240658
8.286046615066159
7.924470169824261
7.5528846800011
7.183694804264046
6.827860485349741
6.494146698898095
6.188578706906314
5.914512432988515
5.673154719282193
5.46422958530235
5.286564471390244
5.138513231698641
5.018222186382091
4.923776903414824
4.853289698821914
4.804973117518472
4.7772158112101994
4.768549233793003
4.777564778570792
4.802939677953981
4.843470247588887
4.898056694764218
4.965692674619481
5.045460263901054
5.136520334893223
5.2381122850120745
5.349557383624884
5.470256905327926
5.5996970159399275
5.737454245595487
5.883182485504208
6.03657777655039
6.197362140358946
6.36528003710452
6.540058749488988
6.721383747694857
6.908870051991633
7.101992494342424
7.300016800003492
7.501936889448864
7.706418389201239
7.911763243798438
8.11589308808653
8.316341209563266
8.510243317572488
8.69432097565408
8.864850619022404
9.017604450147427
9.147756807710753
9.249770616101756
9.31722920296746
9.342514645351422
9.316579886466606
9.228835173662354
9.067132322092506
8.818407003371668
8.47016197879797
8.012196608239455
7.438153419570629
6.747542233179587
5.948984809133768
5.063519200559295
4.126297645030606
3.1896360751082655
2.331566820804608
1.6544130371464378
1.2363632051545317
1.0569983434216086
1.0091603910123412
1.0011975632267718
1.00014723166144
1.000017552456835
1.0000020415522686
1.0000002323673172
1.00000002594389
1.0000000028474192
1.0000000003077574
1.0000000000328075
1.0000000000034537
1.0000000000003593
1.0000000000000369
1.0000000000000036
1.0
1.0
1.0
1.0
1.0
1.0
1.0
1.0
1.0
1.0
1.0
1.0
1.0
1.0
1.0
1.0
8.704476416293918
8.612993045068727
8.340338091233235
7.962396008687943
7.564854087351929
7.166461500314876
6.780387867083374
6.41699111885055
6.083199599913636
5.782737245761961
5.516832233279824
5.285019132962165
5.085834641693727
4.917320545517332
4.777334918484655
4.663722885908507
4.5743960667108325
4.507374029150643
4.460825701750566
4.433114052730219
4.422779675460677
4.428475328837924
4.448950273156925
4.483068522152417
4.529803204819237
4.5882237638459875
4.657489867464804
4.7368407426634045
4.825595124519282
4.923152967767435
5.028990577900604
5.1426641466791025
5.2638345748015265
5.392273966591702
5.527824215076626
5.670362733531014
5.819785387211159
5.975977951131098
6.138804012550695
6.308079725946942
6.48351009554118
6.664629407014498
6.850737217078978
7.040826238268244
7.233520985815301
7.427025894225533
7.619076169684194
7.806878455876182
7.987029525596207
8.155421024720791
8.307061508065772
8.435657262128895
8.533325387500536
8.590626812219636
8.596765388709546
8.540113116190549
8.408972072268925
8.192569519637974
7.882963815418727
7.478558907049196
6.987773672409795
6.429405427215901
5.828135560349736
5.203736463305014
4.56239642911245
3.9001668239744176
3.2161227212405095
2.5324714428350874
1.9108306236401025
1.43560027801674
1.1547881116127598
1.0375216954807651
1.0060364355946276
1.0007675133060225
1.0000910715935334
1.0000104875438003
1.0000011809011973
1.000000130427558
1.0000000141624208
1.0000000015147494
1.0000000001598348
1.0000000000166613
1.0000000000017177
1.0000000000001747
1.000000000000017
1.0000000000000013
1.0
1.0
1.0
1.0
1.0
1.0
1.0
1.0
1.0
1.0
1.0
1.0
1.0
1.0
1.0
8.167556403913894
8.04247110081326
7.684414468106408
7.211350290598654
6.737784966517522
6.285619545499742
5.8684763141922325
5.49417598421849
5.165112619175722
4.880004521137842
4.63561017304215
4.427947720895764
4.253011794500185
4.107117222881584
3.987010711131733
3.8898622837739474
3.8132055928012583
3.7548774937430913
3.7129826101002505
3.68587190474865
3.672119835518474
3.670477825147355
3.679839016340289
3.6992470771589385
3.7278833477271935
3.7650367919237184
3.810094873645672
3.862527713765309
3.9218940856602225
3.987851607537178
4.060143505313468
4.138573221967326
4.222996954655972
4.313368470585521
4.4097845473192
4.512427956304938
4.621482708655858
4.737138547859035
4.859606784807813
4.989088638695479
5.125727287181706
5.269569422850253
5.42049579438831
5.578112874469426
5.741625626068636
5.909692815167839
6.080259986220477
6.250352298091628
6.4155189443922325
6.569026130988764
6.701530198621888
6.801187561060913
6.854025370585495
6.844962423384634
6.7601622466135005
6.591342044659077
6.3411436633058935
6.02651995617326
5.677167476741278
5.324679109857221
4.991711756416856
4.691295973497968
4.427776811585962
4.1941843951889775
3.96925081834656
3.7183287036053403
3.4010699363293284
2.987448876068055
2.481595457378932
1.9433484118707338
1.479117042966898
1.1786405406852865
1.0447491354406964
1.0072350817432234
1.0008939766200677
1.0001023772448898
1.0000113990067607
1.0000012442803616
1.000000133550731
1.0000000141231244
1.000000001473955
1.0000000001520206
1.0000000000155127
1.000000000001567
1.000000000000156
1.000000000000015
1.000000000000001
1.0
1.0
1.0
1.0
1.0
1.0
1.0
1.0
1.0
1.0
1.0
1.0
1.0
1.0
7.4274874341182935
7.2708556846505505
6.836009526702086
6.281462625625771
5.749132421945669
5.264578868412825
4.83783531563643
4.471360489554008
4.162153071423884
3.9042464068359366
3.6906438935849253
3.5145083247767825
3.369756799664308
3.2512638594505443
3.154839449444564
3.077094815102361
3.0152765824601144
2.967121941438654
2.9307537564768116
2.904606098103656
2.887368122317154
2.8779400405844164
2.87541704324079
2.8790864408731744
2.888394813485842
2.902915667089476
2.922344989751782
2.9464953905084093
2.975288227190055
3.008735319028074
3.0468876655247583
3.08980155590751
3.137593419940148
3.1904449044035137
3.2486384036506815
3.312501942210403
3.3823059514217246
3.4583690272899945
3.5410795774780004
3.630825359298754
3.7279722666458612
3.832835230640949
3.945583139066861
4.066084087090168
4.193696488756268
4.326955115534207
4.462757310904058
4.595391831127428
4.716073634930364
4.8128616640825745
4.871421161059987
4.877835876222643
4.823634125192448
4.711061742117423
4.555315886385092
4.38063059881126
4.210995558997185
4.065132070226667
3.9572840191704968
3.895799719094738
3.8795218154886317
3.895847718739337
3.922377381522756
3.9345013005418723
3.9117969516904427
3.8354640479714392
3.683471055721106
3.430396405071293
3.0560233388166855
2.5661328796357106
2.019654284310001
1.5296667370590291
1.2017045857736584
1.0513154811056142
1.008276106094999
1.0009939208974865
1.0001100632499482
1.0000118751047924
1.000001259344988
1.0000001316250835
1.0000000135822613
1.000000001385628
1.0000000001399152
1.0000000000139968
1.000000000001388
1.0000000000001363
1.000000000000013
1.000000000000001
1.0
1.0
1.0
1.0
1.0
1.0
1.0
1.0
1.0
1.0
1.0
1.0
1.0
6.418483580775128
6.229844778445182
5.754030479747605
5.192643298815284
4.673705730453672
4.217020989153832
3.826014222920511
3.498680631050732
3.2294044321282662
3.0106365195378144
2.834215479179847
2.692381511101707
2.5783482740805344
2.486501455871112
2.412357025535483
2.352396535162361
2.3038698626665077
2.264619196320291
2.2329428918069483
2.2074972358971907
2.1872276149442706
2.1713224195459895
2.159186032902977
2.150413102000444
2.144753918604677
2.1420919319610063
2.1424317710036687
2.145880145958483
2.152616715718811
2.1628591967856408
2.1768575579465854
2.194948621110881
2.2175440445823327
2.244950122262055
2.2773927954075743
2.3150322261544334
2.3579267719876587
2.4062125859458683
2.4601004341973605
2.5197904863843563
2.585466737472271
2.6572312211892757
2.7349675969419085
2.818051291668928
2.9046450100101247
2.99094483514273
3.0707112730993673
3.1352023694584967
3.174627554970213
3.1818745566282547
3.157077963274036
3.1100831248386207
3.058620681796117
3.02275117532788
3.019602208388489
3.060315161508198
3.1470771382474156
3.2706944352465817
3.411649083251593
3.5497945196279153
3.673676274733363
3.7786752408488544
3.862021335936373
3.9203201692815806
3.9481773782596763
3.936679496377201
3.871636425785265
3.7322509035020928
3.4923033419207474
3.1283604983139552
2.6405217397400658
2.08276367074665
1.570360456905655
1.219777594382016
1.0562169906449657
1.008979950059228
1.0010479256030764
1.0001124374658612
1.000011781635198
1.0000012164083008
1.0000001240430794
1.000000012511594
1.000000001249675
1.0000000001237204
1.00000000001215
1.0000000000011842
1.0000000000001144
1.0000000000000107
1.0000000000000007
1.0
1.0
1.0
1.0
1.0
1.0
1.0
1.0
1.0
1.0
1.0
1.0
5.147581198320583
4.918912523855233
4.447531590563216
3.9906193508667998
3.585156079135883
3.2257133437174446
2.9141002621254652
2.6517165803651426
2.436343402903333
2.2630843570107366
2.125533822507668
2.0168754322611115
1.9308592437344616
1.8622381582825864
1.8068385318155278
1.7614456286794098
1.7236289410395296
1.6915727660548299
1.6639371333537731
1.6397532304009754
1.6183481499740986
1.5992902370701794
1.5823472278642212
1.567449210830182
1.5546519561109995
1.5441053122901316
1.5360208493014733
1.5306295878412743
1.5281537248496324
1.5288499760547296
1.5330831268519152
1.5412489291511444
1.5536399834441847
1.5703498112990741
1.5913316450916266
1.6164459258212274
1.6454638450428467
1.6781319078645789
1.7141863272847246
1.753381677813486
1.7953848258867655
1.8395072921644395
1.8843974441339544
1.9277497500531646
1.9660292227169671
1.99457520638813
2.0091479270162
2.0088997420241537
1.999128932485509
1.991937491984673
2.0037215628120695
2.0504744948590927
2.1426147616483315
2.2807852550656595
2.4545154978872086
2.6463836128504865
2.8413025131393925
3.03089761911126
3.2105496941465166
3.3769490328146468
3.5274484237208505
3.6598759293647976
3.772282356015302
3.8625166243957074
3.927531982683498
3.96231785739561
3.9583910545326435
3.90191855048198
3.772086494836169
3.5417395542066226
3.184880686398789
2.6973473024599572
2.1295982756178296
1.5992000948292149
1.2315811277322473
1.0589489555519647
1.0092477302786285
1.0010476730662823
1.0001091435548897
1.0000111324517034
1.000001121379722
1.0000001117831687
1.0000000110400822
1.000000001081294
1.0000000001051064
1.000000000010146
1.0000000000009728
1.000000000000092
1.0000000000000082
1.0000000000000007
1.0
1.0
1.0
1.0
1.0
1.0
1.0
1.0
1.0
1.0
1.0
3.91881806748155
3.6668559102830405
3.221531914458144
2.885254112576668
2.6180459271915226
2.378445705925735
2.1599312654817484
1.9688358355829718
1.8088768602111478
1.6794746997839767
1.5772637241487164
1.4973174602332109
1.4345760499684488
1.3846462457782687
1.3440413527933972
1.310143439904243
1.281064164783642
1.255491990854217
1.2325593632067056
1.2117370065525856
1.1927527097499797
1.1755281973450398
1.160127759161693
1.1467137156933762
1.1355057704308313
1.1267436105617181
1.1206516233752641
1.117406283019296
1.117163077420695
1.120103007151268
1.1263499786830977
1.135823134481168
1.1482903709136476
1.1634605548253538
1.1809781737284055
1.200410735062218
1.2212485906697494
1.2428688516291513
1.2645008979258718
1.285207262794661
1.3037754975380575
1.3186194485891247
1.3277768718793002
1.329345331328277
1.322771736389351
1.3105177849032994
1.2992791832654538
1.2999060990003086
1.3252557729868804
1.3863145204044935
1.4879991413806501
1.6271290745114646
1.7945554682786597
1.9804306490729005
2.1777273081846378
2.381576771002705
2.587664032074377
2.7917144596591035
2.989554528031148
3.177309756873465
3.351584056488426
3.509553624438212
3.6489172472653415
3.7676929541310273
3.863813891947593
3.934423361618152
3.974785289460117
3.976723176961495
3.926623857957371
3.803554565164191
3.579481463816552
3.226329989810832
2.7368458053594957
2.159585073492398
1.6151737580189807
1.2363591723250051
1.0592410324676673
1.00904278913655
1.0009933851660793
1.000100695402936
1.0000100209277276
1.0000009868977133
1.0000000963482432
1.0000000093331531
1.0000000008977334
1.000000000085797
1.0000000000081508
1.0000000000007694
1.000000000000072
1.0000000000000067
1.0000000000000004
1.0
1.0
1.0
1.0
1.0
1.0
1.0
1.0
1.0
1.0
3.1393670887464338
2.896347254875116
2.4581840007491396
2.1334416815048365
1.9110063119875422
1.7393269420341604
1.5892461419781827
1.4558882138927636
1.3420798228768738
1.2490947654799656
1.1756279137400956
1.1184906492238893
1.073885096236707
1.0384046044184632
1.0093817251560773
0.9848978522375076
0.9636659741851951
0.9448896409822857
0.9281362467376486
0.913234150180913
0.9001920697137703
0.8891356974187034
0.8802562775669172
0.8737671355576411
0.8698656328988039
0.8686996380282309
0.8703394688326541
0.8747872801074881
0.8819951389538487
0.8917815552574362
0.9037280281677977
0.9172344393627906
0.9316388078654164
0.9462700650068544
0.9604369957215302
0.9733706470778098
0.9842062673949121
0.9919908541593377
0.9956878820394434
0.9942086510316894
0.9866096672017057
0.9725997416884196
0.9532527293768099
0.9317695661715665
0.9139286124471933
0.9076322757000852
0.9213278781520992
0.9616317827046517
1.0311561314535878
1.128254135427004
1.2492083243231868
1.390701877347291
1.550488275995789
1.7266858284376108
1.9170126031513228
2.11846841286589
2.327345376790983
2.539405881610279
2.750143450869418
2.9550727167704154
3.1500049677748283
3.3312709332314983
3.4958278977013943
3.641231319661302
3.7654577828369145
3.866495402984721
3.941623638882382
3.986295290180506
3.9925175757763967
3.946742061068182
3.827769130637524
3.606659289239276
3.253618764416223
2.7594051587170676
2.172507049309908
1.6178138617567273
1.2338515210111543
1.0570816381806984
1.0083973189891178
1.0008936485415005
1.0000883356733548
1.0000085967293377
1.0000008294488403
1.0000000794513009
1.000000007561067
1.0000000007152998
1.0000000000673022
1.0000000000063003
1.0000000000005866
1.0000000000000537
1.0000000000000044
1.0000000000000004
1.0
1.0
1.0
1.0
1.0
1.0
1.0
1.0
1.0
2.813497106024815
2.576529530258783
2.1186401042844825
1.742916309706607
1.4867975067627577
1.3157123969993991
1.191672845595943
1.0925287204587018
1.0109550590629213
0.9451388336442299
0.8935213077167973
0.853703741048927
0.8228646338286792
0.7984983180192152
0.7787127815838822
0.7622304892943614
0.7482766605174336
0.7364487314190032
0.7266017574239256
0.7187572706761793
0.7130329547921954
0.7095877903230192
0.7085778526383675
0.7101193515661555
0.7142567138990381
0.7209371531130806
0.7300107269556612
0.7412252547793398
0.7541537942469565
0.7681408243675152
0.7823645515052625
0.7959143979671304
0.8078360375583672
0.8171786139580085
0.8230350731487767
0.824551023857054
0.8209661815896513
0.811751731886947
0.7968532271739461
0.7769992595773998
0.7539694755502383
0.7307470354157504
0.7114182957089137
0.7007076447926979
0.7031492564194369
0.7220356159744548
0.7586400938612953
0.8125550092206665
0.8830259900262574
0.969981478515662
1.0740820405042302
1.1962128134555305
1.3369513935154682
1.4961869945028499
1.672896299552726
1.8650507170180273
2.0696433891616435
2.2828256791024635
2.500132444397625
2.71677315966138
2.9279537183472195
3.1291885599770612
3.316545660772387
3.4867693631310743
3.6372827570987463
3.766020344378004
3.871003482799052
3.949599904744249
3.99736958929452
4.006379981014791
3.962977838904644
3.8455111372070956
3.624047812546875
3.267355462439945
2.7653059532907065
2.168364514551285
1.6071477937508334
1.224292098643765
1.0527143929535763
1.0074045970635612
1.0007631582857794
1.0000737299256621
1.0000070323194663
1.0000006660365526
1.0000000627055405
1.0000000058716956
1.0000000005470993
1.0000000000507432
1.0000000000046856
1.0000000000004303
1.000000000000039
1.0000000000000033
1.0000000000000002
1.0
1.0
1.0
1.0
1.0
1.0
1.0
1.0
2.665907994103258
2.4166929610877155
1.9319626619792256
1.5271719673872817
1.2435835654924106
1.0545046432474392
0.9299983718719063
0.8446015074386155
0.7821990238487329
0.7352018791825771
0.699684141048234
0.6728754585638186
0.6524715158009637
0.636664170239431
0.6241936947077062
0.6142823246012987
0.6065166358416749
0.6007314252186423
0.5969148967800132
0.5951362109466225
0.5954904191984604
0.598055158967048
0.6028551919296692
0.6098325753998654
0.6188264071234604
0.6295675989265008
0.6416595161429046
0.6545224064367196
0.6673679249753155
0.6792534172305611
0.689175019231282
0.6961564929612843
0.6993327264202225
0.698039421707003
0.6919398466512869
0.6811535897426174
0.6663392243859441
0.6487350239042315
0.6301244739878678
0.612724320873741
0.598980086044971
0.5912479627123806
0.5913914921176374
0.6004094615497529
0.6184088749150558
0.6451514268372724
0.680735686610023
0.7259324936418856
0.7821709695758148
0.8513156430053953
0.9353981293508278
1.0363540719117286
1.1557637386809256
1.2945990017720335
1.4529922726408881
1.6300595622182337
1.8238147170575059
2.0311945082819567
2.248201242374064
2.470148173186113
2.6919752495824025
2.9086009468540635
3.115266619274696
3.3077942317074474
3.48273557981594
3.6374024408441477
3.7696908553494652
3.877639790905002
3.9586641829431017
4.008353111120081
4.018705124289433
3.975776938101538
3.857249186383582
3.6320692806068546
3.267821387367048
2.754673974571631
2.1473330000096618
1.5836778470138022
1.208385419110883
1.0466024596089185
1.0061983684667057
1.0006191303201917
1.0000585954204073
1.0000054888786205
1.000000511243385
1.0000000473855994
1.000000004372418
1.000000000401793
1.0000000000367795
1.0000000000033542
1.0000000000003044
1.000000000000027
1.0000000000000022
1.0
1.0
1.0
1.0
1.0
1.0
1.0
1.0
2.5471280542483505
2.2819902265303176
1.7761944980114197
1.3658906514805178
1.079760655639029
0.8855939043668962
0.7582746243905051
0.676956063905565
0.624515327536802
0.5896367272043759
0.5655545789836103
0.5483671594845931
0.5357835894749995
0.5264046322575312
0.5194048105307589
0.514343789142188
0.5110272527034617
0.5094023712141624
0.5094826630087977
0.5112945580925193
0.514837208807329
0.5200501109221145
0.5267872758224406
0.5348056658369056
0.5437562771693588
0.5531621329130894
0.5623807514896711
0.5706125209573534
0.5770040111402753
0.5807834026569676
0.5813954837907802
0.5786411157298528
0.5727628864604587
0.5644281954365642
0.5546371493723308
0.544589059938525
0.535540601979463
0.5286819437592358
0.5250067673636334
0.5251817238388604
0.5294527005859844
0.5376618851260591
0.5494512325943345
0.5645715905445473
0.5831285767732747
0.6057140273779978
0.6333973346693424
0.6676410991417648
0.7102487646495343
0.7633062548245559
0.8290877740235051
0.9099166145384884
1.0079752456758722
1.1250713141668662
1.262380704461207
1.420201325506019
1.5977554297002141
1.7930826306109964
2.0030567187983532
2.2235319517685195
2.449605857093255
2.6759634420796683
2.897261422626786
3.108491815908349
3.3052552860161364
3.4839445181586974
3.6417856843030494
3.7766467167175586
3.886574989187198
3.9689936851589045
4.019439761393906
4.029705671336256
3.985356725471438
3.8631652101114797
3.630808384984508
3.2549742492389253
2.727479278636712
2.109773278589404
1.5483837118455828
1.1872591555092382
1.0393641348830711
1.0049247351393682
1.0004776002204945
1.0000443790475821
1.0000040907905063
1.000000375354116
1.0000000343034627
1.000000003123441
1.000000000283426
1.000000000025636
1.0000000000023113
1.0000000000002074
1.0000000000000182
1.0000000000000013
1.0
1.0
1.0
1.0
1.0
1.0
1.0
2.4265731578311502
2.1485886433814234
1.6302411090603592
1.226110292272976
0.9506876686056934
0.7637302750181155
0.6398504490864559
0.5614953926157891
0.5141960737145419
0.4863411372032983
0.46960046382963266
0.45896584113254457
0.45181247947877534
0.4468338760643869
0.4434081480148359
0.44126729037448326
0.44031678051746675
0.4405293530693819
0.44188125733673034
0.44431340714758716
0.44770511680344793
0.451858245946817
0.45649339034005415
0.46124543554563396
0.46565255209691897
0.4691641898235985
0.4712345426325102
0.4714828329868044
0.4698486276096775
0.4666948959886944
0.462769735986352
0.4590286771693569
0.4564118978374405
0.4556664740758988
0.45726147550960894
0.46136778426689207
0.4678693080430381
0.47640927921265924
0.4864875369993163
0.49760694680629836
0.5094134409293473
0.5217728821720762
0.5347845306678807
0.5487641521333776
0.5642362578574747
0.5819662727641152
0.6029856782218034
0.6286025615117874
0.6604273153385216
0.7003801584472038
0.7506635923371233
0.813687585580138
0.8919361248347638
0.9877715641010429
1.1031858951160483
1.2395231800980835
1.3972108502974718
1.5755444099851124
1.7725658715064139