# vtk DataFile Version 3.0 
shock_diffraction_time_series_365_.vtk
ASCII
DATASET UNSTRUCTURED_GRID
POINTS         10201 double
0.0 0.0 0.0
0.01 0.0 0.0
0.02 0.0 0.0
0.03 0.0 0.0
0.04 0.0 0.0
0.05 0.0 0.0
0.06 0.0 0.0
0.07 0.0 0.0
0.08 0.0 0.0
0.09 0.0 0.0
0.1 0.0 0.0
0.11 0.0 0.0
0.12 0.0 0.0
0.13 0.0 0.0
0.14 0.0 0.0
0.15 0.0 0.0
0.16 0.0 0.0
0.17 0.0 0.0
0.18 0.0 0.0
0.19 0.0 0.0
0.2 0.0 0.0
0.21 0.0 0.0
0.22 0.0 0.0
0.23 0.0 0.0
0.24 0.0 0.0
0.25 0.0 0.0
0.26 0.0 0.0
0.27 0.0 0.0
0.28 0.0 0.0
0.29 0.0 0.0
0.3 0.0 0.0
0.31 0.0 0.0
0.32 0.0 0.0
0.33 0.0 0.0
0.34 0.0 0.0
0.35000000000000003 0.0 0.0
0.36 0.0 0.0
0.37 0.0 0.0
0.38 0.0 0.0
0.39 0.0 0.0
0.4 0.0 0.0
0.41000000000000003 0.0 0.0
0.42 0.0 0.0
0.43 0.0 0.0
0.44 0.0 0.0
0.45 0.0 0.0
0.46 0.0 0.0
0.47000000000000003 0.0 0.0
0.48 0.0 0.0
0.49 0.0 0.0
0.5 0.0 0.0
0.51 0.0 0.0
0.52 0.0 0.0
0.53 0.0 0.0
0.54 0.0 0.0
0.55 0.0 0.0
0.56 0.0 0.0
0.5700000000000001 0.0 0.0
0.58 0.0 0.0
0.59 0.0 0.0
0.6 0.0 0.0
0.61 0.0 0.0
0.62 0.0 0.0
0.63 0.0 0.0
0.64 0.0 0.0
0.65 0.0 0.0
0.66 0.0 0.0
0.67 0.0 0.0
0.68 0.0 0.0
0.6900000000000001 0.0 0.0
0.7000000000000001 0.0 0.0
0.71 0.0 0.0
0.72 0.0 0.0
0.73 0.0 0.0
0.74 0.0 0.0
0.75 0.0 0.0
0.76 0.0 0.0
0.77 0.0 0.0
0.78 0.0 0.0
0.79 0.0 0.0
0.8 0.0 0.0
0.81 0.0 0.0
0.8200000000000001 0.0 0.0
0.8300000000000001 0.0 0.0
0.84 0.0 0.0
0.85 0.0 0.0
0.86 0.0 0.0
0.87 0.0 0.0
0.88 0.0 0.0
0.89 0.0 0.0
0.9 0.0 0.0
0.91 0.0 0.0
0.92 0.0 0.0
0.93 0.0 0.0
0.9400000000000001 0.0 0.0
0.9500000000000001 0.0 0.0
0.96 0.0 0.0
0.97 0.0 0.0
0.98 0.0 0.0
0.99 0.0 0.0
1.0 0.0 0.0
0.0 0.01 0.0
0.01 0.01 0.0
0.02 0.01 0.0
0.03 0.01 0.0
0.04 0.01 0.0
0.05 0.01 0.0
0.06 0.01 0.0
0.07 0.01 0.0
0.08 0.01 0.0
0.09 0.01 0.0
0.1 0.01 0.0
0.11 0.01 0.0
0.12 0.01 0.0
0.13 0.01 0.0
0.14 0.01 0.0
0.15 0.01 0.0
0.16 0.01 0.0
0.17 0.01 0.0
0.18 0.01 0.0
0.19 0.01 0.0
0.2 0.01 0.0
0.21 0.01 0.0
0.22 0.01 0.0
0.23 0.01 0.0
0.24 0.01 0.0
0.25 0.01 0.0
0.26 0.01 0.0
0.27 0.01 0.0
0.28 0.01 0.0
0.29 0.01 0.0
0.3 0.01 0.0
0.31 0.01 0.0
0.32 0.01 0.0
0.33 0.01 0.0
0.34 0.01 0.0
0.35000000000000003 0.01 0.0
0.36 0.01 0.0
0.37 0.01 0.0
0.38 0.01 0.0
0.39 0.01 0.0
0.4 0.01 0.0
0.41000000000000003 0.01 0.0
0.42 0.01 0.0
0.43 0.01 0.0
0.44 0.01 0.0
0.45 0.01 0.0
0.46 0.01 0.0
0.47000000000000003 0.01 0.0
0.48 0.01 0.0
0.49 0.01 0.0
0.5 0.01 0.0
0.51 0.01 0.0
0.52 0.01 0.0
0.53 0.01 0.0
0.54 0.01 0.0
0.55 0.01 0.0
0.56 0.01 0.0
0.5700000000000001 0.01 0.0
0.58 0.01 0.0
0.59 0.01 0.0
0.6 0.01 0.0
0.61 0.01 0.0
0.62 0.01 0.0
0.63 0.01 0.0
0.64 0.01 0.0
0.65 0.01 0.0
0.66 0.01 0.0
0.67 0.01 0.0
0.68 0.01 0.0
0.6900000000000001 0.01 0.0
0.7000000000000001 0.01 0.0
0.71 0.01 0.0
0.72 0.01 0.0
0.73 0.01 0.0
0.74 0.01 0.0
0.75 0.01 0.0
0.76 0.01 0.0
0.77 0.01 0.0
0.78 0.01 0.0
0.79 0.01 0.0
0.8 0.01 0.0
0.81 0.01 0.0
0.8200000000000001 0.01 0.0
0.8300000000000001 0.01 0.0
0.84 0.01 0.0
0.85 0.01 0.0
0.86 0.01 0.0
0.87 0.01 0.0
0.88 0.01 0.0
0.89 0.01 0.0
0.9 0.01 0.0
0.91 0.01 0.0
0.92 0.01 0.0
0.93 0.01 0.0
0.9400000000000001 0.01 0.0
0.9500000000000001 0.01 0.0
0.96 0.01 0.0
0.97 0.01 0.0
0.98 0.01 0.0
0.99 0.01 0.0
1.0 0.01 0.0
0.0 0.02 0.0
0.01 0.02 0.0
0.02 0.02 0.0
0.03 0.02 0.0
0.04 0.02 0.0
0.05 0.02 0.0
0.06 0.02 0.0
0.07 0.02 0.0
0.08 0.02 0.0
0.09 0.02 0.0
0.1 0.02 0.0
0.11 0.02 0.0
0.12 0.02 0.0
0.13 0.02 0.0
0.14 0.02 0.0
0.15 0.02 0.0
0.16 0.02 0.0
0.17 0.02 0.0
0.18 0.02 0.0
0.19 0.02 0.0
0.2 0.02 0.0
0.21 0.02 0.0
0.22 0.02 0.0
0.23 0.02 0.0
0.24 0.02 0.0
0.25 0.02 0.0
0.26 0.02 0.0
0.27 0.02 0.0
0.28 0.02 0.0
0.29 0.02 0.0
0.3 0.02 0.0
0.31 0.02 0.0
0.32 0.02 0.0
0.33 0.02 0.0
0.34 0.02 0.0
0.35000000000000003 0.02 0.0
0.36 0.02 0.0
0.37 0.02 0.0
0.38 0.02 0.0
0.39 0.02 0.0
0.4 0.02 0.0
0.41000000000000003 0.02 0.0
0.42 0.02 0.0
0.43 0.02 0.0
0.44 0.02 0.0
0.45 0.02 0.0
0.46 0.02 0.0
0.47000000000000003 0.02 0.0
0.48 0.02 0.0
0.49 0.02 0.0
0.5 0.02 0.0
0.51 0.02 0.0
0.52 0.02 0.0
0.53 0.02 0.0
0.54 0.02 0.0
0.55 0.02 0.0
0.56 0.02 0.0
0.5700000000000001 0.02 0.0
0.58 0.02 0.0
0.59 0.02 0.0
0.6 0.02 0.0
0.61 0.02 0.0
0.62 0.02 0.0
0.63 0.02 0.0
0.64 0.02 0.0
0.65 0.02 0.0
0.66 0.02 0.0
0.67 0.02 0.0
0.68 0.02 0.0
0.6900000000000001 0.02 0.0
0.7000000000000001 0.02 0.0
0.71 0.02 0.0
0.72 0.02 0.0
0.73 0.02 0.0
0.74 0.02 0.0
0.75 0.02 0.0
0.76 0.02 0.0
0.77 0.02 0.0
0.78 0.02 0.0
0.79 0.02 0.0
0.8 0.02 0.0
0.81 0.02 0.0
0.8200000000000001 0.02 0.0
0.8300000000000001 0.02 0.0
0.84 0.02 0.0
0.85 0.02 0.0
0.86 0.02 0.0
0.87 0.02 0.0
0.88 0.02 0.0
0.89 0.02 0.0
0.9 0.02 0.0
0.91 0.02 0.0
0.92 0.02 0.0
0.93 0.02 0.0
0.9400000000000001 0.02 0.0
0.9500000000000001 0.02 0.0
0.96 0.02 0.0
0.97 0.02 0.0
0.98 0.02 0.0
0.99 0.02 0.0
1.0 0.02 0.0
0.0 0.03 0.0
0.01 0.03 0.0
0.02 0.03 0.0
0.03 0.03 0.0
0.04 0.03 0.0
0.05 0.03 0.0
0.06 0.03 0.0
0.07 0.03 0.0
0.08 0.03 0.0
0.09 0.03 0.0
0.1 0.03 0.0
0.11 0.03 0.0
0.12 0.03 0.0
0.13 0.03 0.0
0.14 0.03 0.0
0.15 0.03 0.0
0.16 0.03 0.0
0.17 0.03 0.0
0.18 0.03 0.0
0.19 0.03 0.0
0.2 0.03 0.0
0.21 0.03 0.0
0.22 0.03 0.0
0.23 0.03 0.0
0.24 0.03 0.0
0.25 0.03 0.0
0.26 0.03 0.0
0.27 0.03 0.0
0.28 0.03 0.0
0.29 0.03 0.0
0.3 0.03 0.0
0.31 0.03 0.0
0.32 0.03 0.0
0.33 0.03 0.0
0.34 0.03 0.0
0.35000000000000003 0.03 0.0
0.36 0.03 0.0
0.37 0.03 0.0
0.38 0.03 0.0
0.39 0.03 0.0
0.4 0.03 0.0
0.41000000000000003 0.03 0.0
0.42 0.03 0.0
0.43 0.03 0.0
0.44 0.03 0.0
0.45 0.03 0.0
0.46 0.03 0.0
0.47000000000000003 0.03 0.0
0.48 0.03 0.0
0.49 0.03 0.0
0.5 0.03 0.0
0.51 0.03 0.0
0.52 0.03 0.0
0.53 0.03 0.0
0.54 0.03 0.0
0.55 0.03 0.0
0.56 0.03 0.0
0.5700000000000001 0.03 0.0
0.58 0.03 0.0
0.59 0.03 0.0
0.6 0.03 0.0
0.61 0.03 0.0
0.62 0.03 0.0
0.63 0.03 0.0
0.64 0.03 0.0
0.65 0.03 0.0
0.66 0.03 0.0
0.67 0.03 0.0
0.68 0.03 0.0
0.6900000000000001 0.03 0.0
0.7000000000000001 0.03 0.0
0.71 0.03 0.0
0.72 0.03 0.0
0.73 0.03 0.0
0.74 0.03 0.0
0.75 0.03 0.0
0.76 0.03 0.0
0.77 0.03 0.0
0.78 0.03 0.0
0.79 0.03 0.0
0.8 0.03 0.0
0.81 0.03 0.0
0.8200000000000001 0.03 0.0
0.8300000000000001 0.03 0.0
0.84 0.03 0.0
0.85 0.03 0.0
0.86 0.03 0.0
0.87 0.03 0.0
0.88 0.03 0.0
0.89 0.03 0.0
0.9 0.03 0.0
0.91 0.03 0.0
0.92 0.03 0.0
0.93 0.03 0.0
0.9400000000000001 0.03 0.0
0.9500000000000001 0.03 0.0
0.96 0.03 0.0
0.97 0.03 0.0
0.98 0.03 0.0
0.99 0.03 0.0
1.0 0.03 0.0
0.0 0.04 0.0
0.01 0.04 0.0
0.02 0.04 0.0
0.03 0.04 0.0
0.04 0.04 0.0
0.05 0.04 0.0
0.06 0.04 0.0
0.07 0.04 0.0
0.08 0.04 0.0
0.09 0.04 0.0
0.1 0.04 0.0
0.11 0.04 0.0
0.12 0.04 0.0
0.13 0.04 0.0
0.14 0.04 0.0
0.15 0.04 0.0
0.16 0.04 0.0
0.17 0.04 0.0
0.18 0.04 0.0
0.19 0.04 0.0
0.2 0.04 0.0
0.21 0.04 0.0
0.22 0.04 0.0
0.23 0.04 0.0
0.24 0.04 0.0
0.25 0.04 0.0
0.26 0.04 0.0
0.27 0.04 0.0
0.28 0.04 0.0
0.29 0.04 0.0
0.3 0.04 0.0
0.31 0.04 0.0
0.32 0.04 0.0
0.33 0.04 0.0
0.34 0.04 0.0
0.35000000000000003 0.04 0.0
0.36 0.04 0.0
0.37 0.04 0.0
0.38 0.04 0.0
0.39 0.04 0.0
0.4 0.04 0.0
0.41000000000000003 0.04 0.0
0.42 0.04 0.0
0.43 0.04 0.0
0.44 0.04 0.0
0.45 0.04 0.0
0.46 0.04 0.0
0.47000000000000003 0.04 0.0
0.48 0.04 0.0
0.49 0.04 0.0
0.5 0.04 0.0
0.51 0.04 0.0
0.52 0.04 0.0
0.53 0.04 0.0
0.54 0.04 0.0
0.55 0.04 0.0
0.56 0.04 0.0
0.5700000000000001 0.04 0.0
0.58 0.04 0.0
0.59 0.04 0.0
0.6 0.04 0.0
0.61 0.04 0.0
0.62 0.04 0.0
0.63 0.04 0.0
0.64 0.04 0.0
0.65 0.04 0.0
0.66 0.04 0.0
0.67 0.04 0.0
0.68 0.04 0.0
0.6900000000000001 0.04 0.0
0.7000000000000001 0.04 0.0
0.71 0.04 0.0
0.72 0.04 0.0
0.73 0.04 0.0
0.74 0.04 0.0
0.75 0.04 0.0
0.76 0.04 0.0
0.77 0.04 0.0
0.78 0.04 0.0
0.79 0.04 0.0
0.8 0.04 0.0
0.81 0.04 0.0
0.8200000000000001 0.04 0.0
0.8300000000000001 0.04 0.0
0.84 0.04 0.0
0.85 0.04 0.0
0.86 0.04 0.0
0.87 0.04 0.0
0.88 0.04 0.0
0.89 0.04 0.0
0.9 0.04 0.0
0.91 0.04 0.0
0.92 0.04 0.0
0.93 0.04 0.0
0.9400000000000001 0.04 0.0
0.9500000000000001 0.04 0.0
0.96 0.04 0.0
0.97 0.04 0.0
0.98 0.04 0.0
0.99 0.04 0.0
1.0 0.04 0.0
0.0 0.05 0.0
0.01 0.05 0.0
0.02 0.05 0.0
0.03 0.05 0.0
0.04 0.05 0.0
0.05 0.05 0.0
0.06 0.05 0.0
0.07 0.05 0.0
0.08 0.05 0.0
0.09 0.05 0.0
0.1 0.05 0.0
0.11 0.05 0.0
0.12 0.05 0.0
0.13 0.05 0.0
0.14 0.05 0.0
0.15 0.05 0.0
0.16 0.05 0.0
0.17 0.05 0.0
0.18 0.05 0.0
0.19 0.05 0.0
0.2 0.05 0.0
0.21 0.05 0.0
0.22 0.05 0.0
0.23 0.05 0.0
0.24 0.05 0.0
0.25 0.05 0.0
0.26 0.05 0.0
0.27 0.05 0.0
0.28 0.05 0.0
0.29 0.05 0.0
0.3 0.05 0.0
0.31 0.05 0.0
0.32 0.05 0.0
0.33 0.05 0.0
0.34 0.05 0.0
0.35000000000000003 0.05 0.0
0.36 0.05 0.0
0.37 0.05 0.0
0.38 0.05 0.0
0.39 0.05 0.0
0.4 0.05 0.0
0.41000000000000003 0.05 0.0
0.42 0.05 0.0
0.43 0.05 0.0
0.44 0.05 0.0
0.45 0.05 0.0
0.46 0.05 0.0
0.47000000000000003 0.05 0.0
0.48 0.05 0.0
0.49 0.05 0.0
0.5 0.05 0.0
0.51 0.05 0.0
0.52 0.05 0.0
0.53 0.05 0.0
0.54 0.05 0.0
0.55 0.05 0.0
0.56 0.05 0.0
0.5700000000000001 0.05 0.0
0.58 0.05 0.0
0.59 0.05 0.0
0.6 0.05 0.0
0.61 0.05 0.0
0.62 0.05 0.0
0.63 0.05 0.0
0.64 0.05 0.0
0.65 0.05 0.0
0.66 0.05 0.0
0.67 0.05 0.0
0.68 0.05 0.0
0.6900000000000001 0.05 0.0
0.7000000000000001 0.05 0.0
0.71 0.05 0.0
0.72 0.05 0.0
0.73 0.05 0.0
0.74 0.05 0.0
0.75 0.05 0.0
0.76 0.05 0.0
0.77 0.05 0.0
0.78 0.05 0.0
0.79 0.05 0.0
0.8 0.05 0.0
0.81 0.05 0.0
0.8200000000000001 0.05 0.0
0.8300000000000001 0.05 0.0
0.84 0.05 0.0
0.85 0.05 0.0
0.86 0.05 0.0
0.87 0.05 0.0
0.88 0.05 0.0
0.89 0.05 0.0
0.9 0.05 0.0
0.91 0.05 0.0
0.92 0.05 0.0
0.93 0.05 0.0
0.9400000000000001 0.05 0.0
0.9500000000000001 0.05 0.0
0.96 0.05 0.0
0.97 0.05 0.0
0.98 0.05 0.0
0.99 0.05 0.0
1.0 0.05 0.0
0.0 0.06 0.0
0.01 0.06 0.0
0.02 0.06 0.0
0.03 0.06 0.0
0.04 0.06 0.0
0.05 0.06 0.0
0.06 0.06 0.0
0.07 0.06 0.0
0.08 0.06 0.0
0.09 0.06 0.0
0.1 0.06 0.0
0.11 0.06 0.0
0.12 0.06 0.0
0.13 0.06 0.0
0.14 0.06 0.0
0.15 0.06 0.0
0.16 0.06 0.0
0.17 0.06 0.0
0.18 0.06 0.0
0.19 0.06 0.0
0.2 0.06 0.0
0.21 0.06 0.0
0.22 0.06 0.0
0.23 0.06 0.0
0.24 0.06 0.0
0.25 0.06 0.0
0.26 0.06 0.0
0.27 0.06 0.0
0.28 0.06 0.0
0.29 0.06 0.0
0.3 0.06 0.0
0.31 0.06 0.0
0.32 0.06 0.0
0.33 0.06 0.0
0.34 0.06 0.0
0.35000000000000003 0.06 0.0
0.36 0.06 0.0
0.37 0.06 0.0
0.38 0.06 0.0
0.39 0.06 0.0
0.4 0.06 0.0
0.41000000000000003 0.06 0.0
0.42 0.06 0.0
0.43 0.06 0.0
0.44 0.06 0.0
0.45 0.06 0.0
0.46 0.06 0.0
[...]
POINT_DATA  10201
FIELD  FlowField  4
Density    1 10201  double
2.5995650026682346
2.6080953270424097
2.634369787905909
2.674471869226222
2.720087825969352
2.7652689553456984
2.8063701227585427
2.841270765047114
2.8691302030486874
2.8901192130292293
2.905121206811428
2.9154514937753815
2.9226240415888114
2.9281711612106536
2.933507138516899
2.9398951811444114
2.9483793266568217
2.9596618867606463
2.974107862246372
2.991783037993513
3.012467128646917
3.0356758927760215
3.060685211526403
3.0865647847541027
3.11221745428674
3.136356425238821
3.1574495945269176
3.1736828837647093
3.182914010857639
3.182614132744665
3.169802077975411
3.1409830184883534
3.092116426305328
3.0186611880606087
2.9157840586385713
2.778871502864315
2.604541470122201
2.3923589716378544
2.1472589002051508
1.8820820405246312
1.6186060138042648
1.3845023111771537
1.2047829050402319
1.0905114369566042
1.032737662364694
1.0099025745011154
1.0026366122199897
1.0006444093100537
1.0001471459167361
1.0000315827744393
1.000006389706055
1.0000012212564626
1.0000002210416163
1.0000000379902922
1.0000000062191114
1.0000000009728967
1.0000000001459375
1.0000000000210623
1.0000000000029339
1.0000000000003957
1.0000000000000522
1.0000000000000067
1.0000000000000007
1.0
1.0
1.0
1.0
1.0
1.0
1.0
1.0
1.0
1.0
1.0
1.0
1.0
1.0
1.0
1.0
1.0
1.0
1.0
1.0
1.0
1.0
1.0
1.0
1.0
1.0
1.0
1.0
1.0
1.0
1.0
1.0
1.0
1.0
1.0
1.0
1.0
1.0
2.836161784159889
2.8364996972242755
2.843992979454055
2.861324033093326
2.8817751389814847
2.900992409184989
2.916741676207067
2.9278962979607392
2.934192305222528
2.936047471759812
2.9343696181578602
2.9303662349413084
2.9253755947175115
2.920729164458251
2.9176477581229214
2.9172471014244596
2.9204601701600335
2.9278960477878453
2.9398593306590537
2.956386312792007
2.9772510570438695
3.001978042260985
3.0298550915609486
3.0599874426598506
3.091350056158801
3.1227531208480666
3.1527917965160066
3.179817092558823
3.201896656593338
3.2167617832875126
3.221742164487878
3.2136937398783063
3.188932912884348
3.1432048325260307
3.0717406703203283
2.9695012982620557
2.831759636367014
2.6552223342718606
2.4398548847915222
2.1913039132176557
1.92312300909113
1.6570871646011216
1.4196354844355221
1.233827371484184
1.11008990814303
1.0424651444344943
1.0132906646013247
1.0034925693472727
1.0008184638756146
1.0001775846216518
1.0000361478764617
1.000006936082696
1.0000012582919788
1.0000002164341304
1.000000035407853
1.000000005527988
1.0000000008265382
1.0000000001187788
1.0000000000164628
1.000000000002208
1.0000000000002873
1.000000000000036
1.000000000000004
1.0000000000000004
1.0
1.0
1.0
1.0
1.0
1.0
1.0
1.0
1.0
1.0
1.0
1.0
1.0
1.0
1.0
1.0
1.0
1.0
1.0
1.0
1.0
1.0
1.0
1.0
1.0
1.0
1.0
1.0
1.0
1.0
1.0
1.0
1.0
1.0
1.0
1.0
1.0
3.24279384805803
3.2262552405743703
3.195351384560174
3.1668767263851585
3.1376866781874244
3.1066699117337286
3.074217497283347
3.0408874107001234
3.0072716737958136
2.97404537204581
2.9419990398646716
2.912019261947571
2.8850343020500464
2.861949158132962
2.843597638756615
2.8308046237954665
2.8242861083479904
2.824482975747585
2.831603857172178
2.8456517937223595
2.86641402546625
2.8934522400345903
2.926094826695336
2.96351720135529
3.004816573844971
3.0489673116110945
3.094778032048561
3.14087564449543
3.1856810714984505
3.2273714676634926
3.263827162817149
3.292561505234468
3.3106322189043427
3.314534830801663
3.3000879028915264
3.2623393788173085
3.195559718603587
3.0934534782738643
2.949821999499667
2.7600067108041113
2.5233765019419625
2.24671741707723
1.947296169286378
1.6529823022108863
1.3968215130221804
1.2055143076729995
1.0873213105509794
1.0294787107302685
1.0079392701943561
1.001812297280498
1.0003751273231412
1.0000724998585158
1.0000132036685847
1.0000022754481026
1.0000003723343132
1.0000000580516255
1.0000000086557768
1.0000000012388972
1.0000000001708462
1.0000000000227793
1.0000000000029459
1.0000000000003701
1.0000000000000449
1.0000000000000049
1.0000000000000004
1.0
1.0
1.0
1.0
1.0
1.0
1.0
1.0
1.0
1.0
1.0
1.0
1.0
1.0
1.0
1.0
1.0
1.0
1.0
1.0
1.0
1.0
1.0
1.0
1.0
1.0
1.0
1.0
1.0
1.0
1.0
1.0
1.0
1.0
1.0
1.0
3.515959780461582
3.482911491337307
3.4148741842275805
3.3432467319844688
3.2687166149449354
3.1931141746540797
3.1189505176832473
3.047947152865324
2.9811212356618664
2.919099214012394
2.86236140614157
2.81136748911734
2.7665922094870403
2.7285144839280155
2.697609563426848
2.6744240111746898
2.6594696175008377
2.653061872817575
2.6553605901415414
2.6663832927724984
2.6859776487734344
2.7137878895943244
2.7492289008264432
2.7915550081784546
2.839951276025939
2.893511378775535
2.951194258606609
3.0118138641137797
3.0740268328989764
3.136310531853552
3.1969304381266612
3.2538956927430154
3.3048991948225557
3.347235325091818
3.377687754524434
3.3923831452491036
3.386617538318724
3.354689075725486
3.289820337674175
3.1843506116397142
3.0305432821508345
2.8224972712739267
2.5595479834105745
2.2509672377843932
1.920011641875216
1.603099344858731
1.3403983915368884
1.158812503769137
1.0586466385124966
1.0167026670188197
1.0038002754518605
1.000754782995101
1.0001385839594017
1.0000239516695828
1.0000039212448069
1.0000006106035064
1.0000000907894633
1.000000012940872
1.000000001775167
1.000000000235228
1.0000000000302154
1.000000000003774
1.0000000000004594
1.0000000000000542
1.0000000000000062
1.0000000000000007
1.0
1.0
1.0
1.0
1.0
1.0
1.0
1.0
1.0
1.0
1.0
1.0
1.0
1.0
1.0
1.0
1.0
1.0
1.0
1.0
1.0
1.0
1.0
1.0
1.0
1.0
1.0
1.0
1.0
1.0
1.0
1.0
1.0
1.0
1.0
3.668393299587725
3.6206039199164586
3.519691067106352
3.410770642120085
3.298086365932339
3.1855926736594826
3.077291064759095
2.9756809089787857
2.882005935660092
2.796766548422232
2.7201247796251136
2.652141975798105
2.592886607101291
2.5424683218844226
2.50105692099128
2.4689301561864623
2.4464000186442822
2.4336911166372257
2.430944942382429
2.438222514750221
2.4554654943925094
2.4824460593985678
2.518724461081308
2.563668657687288
2.6165427866906894
2.6765400042911147
2.7427470370263007
2.8141258838620478
2.8895045785438946
2.9675615753580735
3.046803735820148
3.1255400922063727
3.2018507680633097
3.2735454373701893
3.338101203647175
3.3925667301115094
3.4334193059910074
3.4563669361924823
3.456101065228894
3.42604090993815
3.3581838409261797
3.2433204968202665
3.0721298110663575
2.837883423969294
2.541278003594419
2.1968465820098997
1.837373902466648
1.509870545411649
1.2590434597639746
1.1046170555648798
1.0321125788108851
1.007482360777031
1.0014412175637977
1.0002517819391996
1.0000412992084449
1.0000064241765698
1.0000009524338132
1.0000001351631775
1.0000000184370963
1.0000000024270026
1.0000000003094631
1.000000000038351
1.0000000000046334
1.000000000000547
1.000000000000063
1.000000000000007
1.0000000000000007
1.0
1.0
1.0
1.0
1.0
1.0
1.0
1.0
1.0
1.0
1.0
1.0
1.0
1.0
1.0
1.0
1.0
1.0
1.0
1.0
1.0
1.0
1.0
1.0
1.0
1.0
1.0
1.0
1.0
1.0
1.0
1.0
1.0
1.0
3.7281170399029806
3.667034321257985
3.536638964785756
3.3951818804465184
3.250387423822902
3.1074994969365974
2.971388525229658
2.844992736983828
2.729641291520972
2.6256818074375614
2.532986681175271
2.4512692807094547
2.380246892644984
2.3197109874903217
2.2695601240448338
2.2298106318627187
2.2005612878046623
2.181937595061687
2.1740624229178995
2.1770366090828954
2.1908998151749035
2.2155748674734452
2.2508121176926665
2.2961550078172257
2.350978399984669
2.414570770353884
2.48615124011524
2.564840370881931
2.6496409390096907
2.7394179671636385
2.8328735424715745
2.928522375086981
3.0246724359550985
3.1194094361442364
3.210577882381127
3.295745874598092
3.3721374052803306
3.4365141903196745
3.484988353173681
3.512753170024345
3.5137390709960368
3.480253046693764
3.4027720313789747
3.2702893424902943
3.0720045034767702
2.8013999572982713
2.463222223530129
2.081695590155316
1.7033026420986919
1.3853276215617978
1.1690391947882763
1.0562070717749985
1.0137155625012317
1.002602603229993
1.0004339499615869
1.0000675840160482
1.0000099928987896
1.000001411617757
1.000000191403975
1.0000000250183738
1.0000000031650096
1.0000000003889307
1.000000000046574
1.0000000000054503
1.0000000000006246
1.0000000000000702
1.0000000000000075
1.0000000000000007
1.0
1.0
1.0
1.0
1.0
1.0
1.0
1.0
1.0
1.0
1.0
1.0
1.0
1.0
1.0
1.0
1.0
1.0
1.0
1.0
1.0
1.0
1.0
1.0
1.0
1.0
1.0
1.0
1.0
1.0
1.0
1.0
1.0
3.7226402882535874
3.648939831359572
3.4905820423696534
3.319046282914777
3.1459275778835196
2.977206942260106
2.8180543767542483
2.671488097156411
2.538730268339336
2.4198977689962975
2.3145610593737778
2.2221043509762195
2.1419222787030527
2.073512112277599
2.016509177127554
1.9706811198265226
1.9359082742649782
1.91217015565994
1.899523950056283
1.8980725871560444
1.9079218049904618
1.9291277635469928
1.961637062257186
2.0052236213545678
2.0594556043266845
2.12374641034162
2.1974458564810515
2.2798585843746295
2.370206281171205
2.467590362656684
2.570951249265369
2.6790290499445852
2.7903357585132045
2.9031432275258258
3.015484364673478
3.125157879294701
3.2297225124713815
3.326463853199725
3.4123124990228297
3.483688394439144
3.5362458456719525
3.5645025921338744
3.5613679705126273
3.51766641687702
3.42193349701245
3.261145790064501
3.023603913397726
2.705318203247206
2.3199248590293595
1.9074951250371261
1.5308931460726583
1.2506995176047175
1.0899561297012323
1.0232729746607634
1.0044277931784582
1.0007081035215066
1.0001048050229782
1.0000147406200455
1.0000019861008196
1.0000002576459899
1.0000000323199227
1.00000000393582
1.0000000004668883
1.000000000054113
1.0000000000061435
1.0000000000006843
1.0000000000000746
1.000000000000008
1.0000000000000007
1.0
1.0
1.0
1.0
1.0
1.0
1.0
1.0
1.0
1.0
1.0
1.0
1.0
1.0
1.0
1.0
1.0
1.0
1.0
1.0
1.0
1.0
1.0
1.0
1.0
1.0
1.0
1.0
1.0
1.0
1.0
1.0
3.6737673771402335
3.5874208293985603
3.401012919259322
3.1999235043726233
3.0003634257488745
2.8088358205435418
2.6302966702009805
2.4674514960834832
2.321148365925732
2.191117587574325
2.076552766247187
1.976482257579032
1.8899736177631596
1.816228954746829
1.75461503251917
1.7046568010926262
1.666022768846028
1.6385140753141756
1.62205434516585
1.6166699358438015
1.6224611112833456
1.6395613620753124
1.6680758443643617
1.7080116641096106
1.7592083157050484
1.8213035815539111
1.8937940329606915
1.9761511879013096
2.0678492996928015
2.16829925362415
2.276773333858208
2.392335693150486
2.513788520779834
2.639642014721388
2.768110410410984
2.8971289830070863
3.024380958708538
3.1473215620333064
3.2631823846505745
3.368932553801868
3.46116676470312
3.535885932016774
3.5881376910296225
3.611500744076838
3.5974515379414838
3.534789891278482
3.4096171048822823
3.2070023661743363
2.9161413983259403
2.540353689256635
2.1098931417922193
1.6867168484115358
1.345720005270508
1.1328428705926759
1.0365206489755474
1.0070708363235514
1.001091733163225
1.000153781846599
1.000020596293183
1.0000026504615018
1.0000003294779392
1.0000000397345479
1.0000000046661432
1.0000000005352814
1.0000000000601479
1.000000000006635
1.0000000000007194
1.0000000000000768
1.000000000000008
1.0000000000000007
1.0
1.0
1.0
1.0
1.0
1.0
1.0
1.0
1.0
1.0
1.0
1.0
1.0
1.0
1.0
1.0
1.0
1.0
1.0
1.0
1.0
1.0
1.0
1.0
1.0
1.0
1.0
1.0
1.0
1.0
1.0
3.5969136747927988
3.4973917675408974
3.281832700263895
3.0506823752506236
2.8256132119868864
2.613594852804232
2.418899558562695
2.2434861829421013
2.087510543374949
1.9501057264896169
1.8299675565171998
1.725708173259404
1.6360414329825461
1.5598622677527498
1.4962647709478683
1.4445323177112404
1.4041214225518308
1.3746448244219929
1.3558554524626112
1.3476344995982747
1.3499843724420157
1.3630121312075258
1.3868951079136382
1.4218217156627024
1.467907751494229
1.5251143344709388
1.5932071484686063
1.6718266408852165
1.760638268475804
1.8593730303355311
1.9677163696696682
2.085178970660302
2.2109997754270947
2.344076704346569
2.4829328064358207
2.62571936963032
2.770245985061706
2.914026382163934
3.0543315194064222
3.188233167261973
3.3126121082058244
3.4240969782404185
3.5188929658723618
3.5924561802229253
3.638976382564381
3.6506638274717256
3.6169371848991867
3.523862407465062
3.354788499399108
3.0940751465905594
2.736220309133795
2.300596912769178
1.8435401161914933
1.4484593410322644
1.182853014093134
1.0531795344565797
1.010570878113515
1.0015872505917265
1.0002131989333196
1.0000272300658268
1.000003352408695
1.0000004000853602
1.0000000464759515
1.0000000052731903
1.0000000005860576
1.000000000063955
1.0000000000068665
1.0000000000007265
1.0000000000000755
1.0000000000000075
1.0000000000000007
1.0
1.0
1.0
1.0
1.0
1.0
1.0
1.0
1.0
1.0
1.0
1.0
1.0
1.0
1.0
1.0
1.0
1.0
1.0
1.0
1.0
1.0
1.0
1.0
1.0
1.0
1.0
1.0
1.0
1.0
3.5020234978926306
3.388484795690175
3.142223734669467
2.8803843066253574
2.630808419143713
2.4007689967469004
2.193366920464768
2.0093427309529615
1.8478254312956368
1.707128449214021
1.5853208373498089
1.4805346701424726
1.3911051198587792
1.3156150443494055
1.2528912368179033
1.2019823890944008
1.1621335006997593
1.132761871240768
1.1134383623921278
1.1038757358185602
1.1039238087638783
1.1135704427530304
1.1329431527747402
1.1622906229790682
1.201925416935424
1.2521265287898287
1.3130370778126519
1.3846114697066327
1.466698668786976
1.5592274775096402
1.6622630045900282
1.775840841055349
1.899765656518844
2.0334887239426047
2.176032099630006
2.3259580288403248
2.4813714914836535
2.639949350351942
2.799000238574024
2.955547455085791
3.106413046877569
3.2482757834774967
3.3776654443114937
3.4908467802935177
3.583540718795646
3.650429951434347
3.6844149527585004
3.6756555889481417
3.6106344600339124
3.4719914569196164
3.240910802474677
2.904918697867514
2.4730382917186033
1.993341865152657
1.5526336743183429
1.2368181005198975
1.072290211661488
1.0147833156849853
1.002172405177791
1.0002788941821656
1.000034031577439
1.0000040164080286
1.0000004611455462
1.00000005170783
1.0000000056797498
1.0000000006127143
1.0000000000650509
1.000000000006808
1.000000000000703
1.0000000000000715
1.000000000000007
1.0000000000000007
1.0
1.0
1.0
1.0
1.0
1.0
1.0
1.0
1.0
1.0
1.0
1.0
1.0
1.0
1.0
1.0
1.0
1.0
1.0
1.0
1.0
1.0
1.0
1.0
1.0
1.0
1.0
1.0
1.0
3.3948907321128936
3.2663439503817027
2.9878718306506347
2.69533215016812
2.423127561870476
2.1783417978832715
1.962288676016445
1.7740199363402642
1.6113367016699305
1.4715576531339483
1.352035075649148
1.2503839112058222
1.1645539319154479
1.0928256134346588
1.0337755518390486
0.9862350587460254
0.9492516845290098
0.9220578511877533
0.9040487871295224
0.8947699107387059
0.8939126369150943
0.9013173109012568
0.9169821949339353
0.9410779126137286
0.9739486929484754
1.0160668263243537
1.067916728057426
1.1298657963998124
1.2021065208284503
1.2847558860116952
1.3780684450312624
1.4825018603344813
1.598489115972203
1.7261631297210396
1.8652184474380311
2.014837894522267
2.1736570210978394
2.339756028280194
2.5106867736198737
2.6835405434133612
2.855051666659781
3.021722140616363
3.1799336068455393
3.32600060983902
3.4561145854340136
3.5661187902963616
3.6510506734873527
3.704395425321745
3.7170408290378907
3.6760806679593556
3.5640461219890973
3.3601645983959845
3.0467076774234814
2.623688988958945
2.1300416292746798
1.6522790107028076
1.290967792552392
1.092348218027587
1.0193607398170574
1.0027953624619346
1.0003438405268334
1.000040173599262
1.000004555652124
1.000000504383558
1.000000054712467
1.0000000058302678
1.0000000006116598
1.000000000063288
1.0000000000064677
1.0000000000006533
1.0000000000000653
1.0000000000000062
1.0000000000000004
1.0
1.0
1.0
1.0
1.0
1.0
1.0
1.0
1.0
1.0
1.0
1.0
1.0
1.0
1.0
1.0
1.0
1.0
1.0
1.0
1.0
1.0
1.0
1.0
1.0
1.0
1.0
1.0
3.2783828221379214
3.133855924558933
2.8221647602632247
2.5000958192461464
2.20848139452573
1.953276845139855
1.7332665624413113
1.5454230673713232
1.3860009720720419
1.2512292195242338
1.1377136617287769
1.0425545667500162
0.963334566990937
0.8980585060299259
0.8450837239737781
0.8030567446331071
0.7708614833074475
0.7475800894716574
0.7324659423798441
0.7249274334699717
0.7245208697462198
0.7309511921822764
0.7440802270712452
0.7639430621374711
0.790772854960635
0.8250240157061062
0.8673360587230039
0.9184016237895645
0.9788181530993179
1.0490493627443735
1.1295328500625326
1.2208873638174305
1.323990794889879
1.43969526602851
1.5684814003302912
1.71031515451195
1.8645823754686186
2.0300375272955846
2.2047722297261094
2.3862295404375287
2.5712780890537266
2.7563400716063047
2.937552031550983
3.1109262754843665
3.2724669552772307
3.418178423887923
3.5438981542795798
3.6448824782511013
3.7150729519695878
3.7460006946962485
3.7254052727163995
3.6360157608131294
3.455904280975859
3.163478786458225
2.7513180988171255
2.2495676041537473
1.7423503254126436
1.341483750538911
1.1115471388873772
1.023799534218442
1.0033789010380185
1.0003991376515802
1.0000447666517276
1.000004890386133
1.0000005234106875
1.000000055052615
1.000000005703313
1.0000000005830096
1.0000000000588936
1.000000000005886
1.0000000000005826
1.0000000000000566
1.0000000000000049
1.0000000000000004
1.0
1.0
1.0
1.0
1.0
1.0
1.0
1.0
1.0
1.0
1.0
1.0
1.0
1.0
1.0
1.0
1.0
1.0
1.0
1.0
1.0
1.0
1.0
1.0
1.0
1.0
1.0
3.1534620733778427
2.992183316908582
2.6471811386250597
2.298321978811329
1.9919962800786695
1.7316589147428962
1.5128203366122521
1.3301145711225446
1.178146858950557
1.0520544597025696
0.9477323459800002
0.8618115125429776
0.7915538166881027
0.7347343959458004
0.6895380206114304
0.6544759175548028
0.6283219058974917
0.6100648304527072
0.5988744863181772
0.5940787475002585
0.5951499689451423
0.6016994677190526
0.6134803557752684
0.6304002022074275
0.6525447447154314
0.680211986079932
0.7139510991780953
0.7545416785038207
0.8028447389499925
0.8596605870051575
0.9257414100755533
1.0018670784562043
1.0890376454200799
1.188564044757293
1.3017023388149818
1.4292753465285628
1.5715592854252027
1.7282032051003329
1.8981328904050248
2.0794902495012253
2.269636561721292
2.465227793757946
2.6623609715022187
2.8567743257585705
3.044061702294739
3.219847547965877
3.379859243394617
3.5198213213264165
3.6350877614654333
3.71992813202906
3.7664001251720816
3.762831426009183
3.6922585949273588
3.5320674523330973
3.2578278692888527
2.856174149352084
2.3495393038499905
1.818958886967692
1.3849323018375017
1.128056855816074
1.0275370266232866
1.0038351673684824
1.000435953806117
1.0000470701798563
1.0000049674107014
1.0000005152843912
1.0000000526763477
1.0000000053165954
1.0000000005305658
1.0000000000524154
1.0000000000051315
1.0000000000004978
1.0000000000000473
1.0000000000000042
1.0000000000000004
1.0
1.0
1.0
1.0
1.0
1.0
1.0
1.0
1.0
1.0
1.0
1.0
1.0
1.0
1.0
1.0
1.0
1.0
1.0
1.0
1.0
1.0
1.0
1.0
1.0
1.0
3.019996484000045
2.8416026204543035
2.4645222512505303
2.093421108296851
1.7784301355294683
1.5188467460745165
1.3063666379441878
1.1331803795223483
0.9922828880935667
0.8778184894409505
0.7850699375296047
0.7102815547902588
0.6504628092308931
0.6032204483859123
0.5666280233765435
0.5391274830859525
0.5194543115914142
0.5065795258990793
0.4996648797272481
0.49802943130688143
0.5011260275601929
0.5085267896264974
0.5199183469128679
0.5351090531524858
0.5540499375453034
0.5768685426913613
0.6039125787192108
0.6357988768964935
0.6733950173476028
0.7176516501396839
0.769537992601145
0.8300905792383186
0.9004124795883823
0.9818905789180649
1.0762520478115993
1.1851116896533103
1.3096359864174576
1.4504553904352642
1.607533024413334
1.780021052699638
1.9661617854164712
2.163267861440736
2.367798302849587
2.5755261757380485
2.7817748361457193
2.9816844660654382
3.1704505117750106
3.3434596464346087
3.4962413622402155
3.6241473166806073
3.7216612342950715
3.7812407793973337
3.791691091806046
3.7363418973981264
3.59212046140102
3.3324466764892513
2.939286684806121
2.428802492913979
1.8793465807037453
1.4185332963478814
1.1402797632492345
1.03006545490663
1.004087396245903
1.0004478668408403
1.000046691747493
1.0000047741447993
1.0000004812617944
1.00000004793018
1.0000000047229092
1.0000000004609884
1.0000000000446139
1.000000000004284
1.000000000000408
1.0000000000000382
1.0000000000000036
1.0000000000000002
1.0
1.0
1.0
1.0
1.0
1.0
1.0
1.0
1.0
1.0
1.0
1.0
1.0
1.0
1.0
1.0
1.0
1.0
1.0
1.0
1.0
1.0
1.0
1.0
1.0
2.8774907688579834