# vtk DataFile Version 3.0 
shock_diffraction_time_series_479_.vtk
ASCII
DATASET UNSTRUCTURED_GRID
POINTS         10201 double
0.0 0.0 0.0
0.01 0.0 0.0
0.02 0.0 0.0
0.03 0.0 0.0
0.04 0.0 0.0
0.05 0.0 0.0
0.06 0.0 0.0
0.07 0.0 0.0
0.08 0.0 0.0
0.09 0.0 0.0
0.1 0.0 0.0
0.11 0.0 0.0
0.12 0.0 0.0
0.13 0.0 0.0
0.14 0.0 0.0
0.15 0.0 0.0
0.16 0.0 0.0
0.17 0.0 0.0
0.18 0.0 0.0
0.19 0.0 0.0
0.2 0.0 0.0
0.21 0.0 0.0
0.22 0.0 0.0
0.23 0.0 0.0
0.24 0.0 0.0
0.25 0.0 0.0
0.26 0.0 0.0
0.27 0.0 0.0
0.28 0.0 0.0
0.29 0.0 0.0
0.3 0.0 0.0
0.31 0.0 0.0
0.32 0.0 0.0
0.33 0.0 0.0
0.34 0.0 0.0
0.35000000000000003 0.0 0.0
0.36 0.0 0.0
0.37 0.0 0.0
0.38 0.0 0.0
0.39 0.0 0.0
0.4 0.0 0.0
0.41000000000000003 0.0 0.0
0.42 0.0 0.0
0.43 0.0 0.0
0.44 0.0 0.0
0.45 0.0 0.0
0.46 0.0 0.0
0.47000000000000003 0.0 0.0
0.48 0.0 0.0
0.49 0.0 0.0
0.5 0.0 0.0
0.51 0.0 0.0
0.52 0.0 0.0
0.53 0.0 0.0
0.54 0.0 0.0
0.55 0.0 0.0
0.56 0.0 0.0
0.5700000000000001 0.0 0.0
0.58 0.0 0.0
0.59 0.0 0.0
0.6 0.0 0.0
0.61 0.0 0.0
0.62 0.0 0.0
0.63 0.0 0.0
0.64 0.0 0.0
0.65 0.0 0.0
0.66 0.0 0.0
0.67 0.0 0.0
0.68 0.0 0.0
0.6900000000000001 0.0 0.0
0.7000000000000001 0.0 0.0
0.71 0.0 0.0
0.72 0.0 0.0
0.73 0.0 0.0
0.74 0.0 0.0
0.75 0.0 0.0
0.76 0.0 0.0
0.77 0.0 0.0
0.78 0.0 0.0
0.79 0.0 0.0
0.8 0.0 0.0
0.81 0.0 0.0
0.8200000000000001 0.0 0.0
0.8300000000000001 0.0 0.0
0.84 0.0 0.0
0.85 0.0 0.0
0.86 0.0 0.0
0.87 0.0 0.0
0.88 0.0 0.0
0.89 0.0 0.0
0.9 0.0 0.0
0.91 0.0 0.0
0.92 0.0 0.0
0.93 0.0 0.0
0.9400000000000001 0.0 0.0
0.9500000000000001 0.0 0.0
0.96 0.0 0.0
0.97 0.0 0.0
0.98 0.0 0.0
0.99 0.0 0.0
1.0 0.0 0.0
0.0 0.01 0.0
0.01 0.01 0.0
0.02 0.01 0.0
0.03 0.01 0.0
0.04 0.01 0.0
0.05 0.01 0.0
0.06 0.01 0.0
0.07 0.01 0.0
0.08 0.01 0.0
0.09 0.01 0.0
0.1 0.01 0.0
0.11 0.01 0.0
0.12 0.01 0.0
0.13 0.01 0.0
0.14 0.01 0.0
0.15 0.01 0.0
0.16 0.01 0.0
0.17 0.01 0.0
0.18 0.01 0.0
0.19 0.01 0.0
0.2 0.01 0.0
0.21 0.01 0.0
0.22 0.01 0.0
0.23 0.01 0.0
0.24 0.01 0.0
0.25 0.01 0.0
0.26 0.01 0.0
0.27 0.01 0.0
0.28 0.01 0.0
0.29 0.01 0.0
0.3 0.01 0.0
0.31 0.01 0.0
0.32 0.01 0.0
0.33 0.01 0.0
0.34 0.01 0.0
0.35000000000000003 0.01 0.0
0.36 0.01 0.0
0.37 0.01 0.0
0.38 0.01 0.0
0.39 0.01 0.0
0.4 0.01 0.0
0.41000000000000003 0.01 0.0
0.42 0.01 0.0
0.43 0.01 0.0
0.44 0.01 0.0
0.45 0.01 0.0
0.46 0.01 0.0
0.47000000000000003 0.01 0.0
0.48 0.01 0.0
0.49 0.01 0.0
0.5 0.01 0.0
0.51 0.01 0.0
0.52 0.01 0.0
0.53 0.01 0.0
0.54 0.01 0.0
0.55 0.01 0.0
0.56 0.01 0.0
0.5700000000000001 0.01 0.0
0.58 0.01 0.0
0.59 0.01 0.0
0.6 0.01 0.0
0.61 0.01 0.0
0.62 0.01 0.0
0.63 0.01 0.0
0.64 0.01 0.0
0.65 0.01 0.0
0.66 0.01 0.0
0.67 0.01 0.0
0.68 0.01 0.0
0.6900000000000001 0.01 0.0
0.7000000000000001 0.01 0.0
0.71 0.01 0.0
0.72 0.01 0.0
0.73 0.01 0.0
0.74 0.01 0.0
0.75 0.01 0.0
0.76 0.01 0.0
0.77 0.01 0.0
0.78 0.01 0.0
0.79 0.01 0.0
0.8 0.01 0.0
0.81 0.01 0.0
0.8200000000000001 0.01 0.0
0.8300000000000001 0.01 0.0
0.84 0.01 0.0
0.85 0.01 0.0
0.86 0.01 0.0
0.87 0.01 0.0
0.88 0.01 0.0
0.89 0.01 0.0
0.9 0.01 0.0
0.91 0.01 0.0
0.92 0.01 0.0
0.93 0.01 0.0
0.9400000000000001 0.01 0.0
0.9500000000000001 0.01 0.0
0.96 0.01 0.0
0.97 0.01 0.0
0.98 0.01 0.0
0.99 0.01 0.0
1.0 0.01 0.0
0.0 0.02 0.0
0.01 0.02 0.0
0.02 0.02 0.0
0.03 0.02 0.0
0.04 0.02 0.0
0.05 0.02 0.0
0.06 0.02 0.0
0.07 0.02 0.0
0.08 0.02 0.0
0.09 0.02 0.0
0.1 0.02 0.0
0.11 0.02 0.0
0.12 0.02 0.0
0.13 0.02 0.0
0.14 0.02 0.0
0.15 0.02 0.0
0.16 0.02 0.0
0.17 0.02 0.0
0.18 0.02 0.0
0.19 0.02 0.0
0.2 0.02 0.0
0.21 0.02 0.0
0.22 0.02 0.0
0.23 0.02 0.0
0.24 0.02 0.0
0.25 0.02 0.0
0.26 0.02 0.0
0.27 0.02 0.0
0.28 0.02 0.0
0.29 0.02 0.0
0.3 0.02 0.0
0.31 0.02 0.0
0.32 0.02 0.0
0.33 0.02 0.0
0.34 0.02 0.0
0.35000000000000003 0.02 0.0
0.36 0.02 0.0
0.37 0.02 0.0
0.38 0.02 0.0
0.39 0.02 0.0
0.4 0.02 0.0
0.41000000000000003 0.02 0.0
0.42 0.02 0.0
0.43 0.02 0.0
0.44 0.02 0.0
0.45 0.02 0.0
0.46 0.02 0.0
0.47000000000000003 0.02 0.0
0.48 0.02 0.0
0.49 0.02 0.0
0.5 0.02 0.0
0.51 0.02 0.0
0.52 0.02 0.0
0.53 0.02 0.0
0.54 0.02 0.0
0.55 0.02 0.0
0.56 0.02 0.0
0.5700000000000001 0.02 0.0
0.58 0.02 0.0
0.59 0.02 0.0
0.6 0.02 0.0
0.61 0.02 0.0
0.62 0.02 0.0
0.63 0.02 0.0
0.64 0.02 0.0
0.65 0.02 0.0
0.66 0.02 0.0
0.67 0.02 0.0
0.68 0.02 0.0
0.6900000000000001 0.02 0.0
0.7000000000000001 0.02 0.0
0.71 0.02 0.0
0.72 0.02 0.0
0.73 0.02 0.0
0.74 0.02 0.0
0.75 0.02 0.0
0.76 0.02 0.0
0.77 0.02 0.0
0.78 0.02 0.0
0.79 0.02 0.0
0.8 0.02 0.0
0.81 0.02 0.0
0.8200000000000001 0.02 0.0
0.8300000000000001 0.02 0.0
0.84 0.02 0.0
0.85 0.02 0.0
0.86 0.02 0.0
0.87 0.02 0.0
0.88 0.02 0.0
0.89 0.02 0.0
0.9 0.02 0.0
0.91 0.02 0.0
0.92 0.02 0.0
0.93 0.02 0.0
0.9400000000000001 0.02 0.0
0.9500000000000001 0.02 0.0
0.96 0.02 0.0
0.97 0.02 0.0
0.98 0.02 0.0
0.99 0.02 0.0
1.0 0.02 0.0
0.0 0.03 0.0
0.01 0.03 0.0
0.02 0.03 0.0
0.03 0.03 0.0
0.04 0.03 0.0
0.05 0.03 0.0
0.06 0.03 0.0
0.07 0.03 0.0
0.08 0.03 0.0
0.09 0.03 0.0
0.1 0.03 0.0
0.11 0.03 0.0
0.12 0.03 0.0
0.13 0.03 0.0
0.14 0.03 0.0
0.15 0.03 0.0
0.16 0.03 0.0
0.17 0.03 0.0
0.18 0.03 0.0
0.19 0.03 0.0
0.2 0.03 0.0
0.21 0.03 0.0
0.22 0.03 0.0
0.23 0.03 0.0
0.24 0.03 0.0
0.25 0.03 0.0
0.26 0.03 0.0
0.27 0.03 0.0
0.28 0.03 0.0
0.29 0.03 0.0
0.3 0.03 0.0
0.31 0.03 0.0
0.32 0.03 0.0
0.33 0.03 0.0
0.34 0.03 0.0
0.35000000000000003 0.03 0.0
0.36 0.03 0.0
0.37 0.03 0.0
0.38 0.03 0.0
0.39 0.03 0.0
0.4 0.03 0.0
0.41000000000000003 0.03 0.0
0.42 0.03 0.0
0.43 0.03 0.0
0.44 0.03 0.0
0.45 0.03 0.0
0.46 0.03 0.0
0.47000000000000003 0.03 0.0
0.48 0.03 0.0
0.49 0.03 0.0
0.5 0.03 0.0
0.51 0.03 0.0
0.52 0.03 0.0
0.53 0.03 0.0
0.54 0.03 0.0
0.55 0.03 0.0
0.56 0.03 0.0
0.5700000000000001 0.03 0.0
0.58 0.03 0.0
0.59 0.03 0.0
0.6 0.03 0.0
0.61 0.03 0.0
0.62 0.03 0.0
0.63 0.03 0.0
0.64 0.03 0.0
0.65 0.03 0.0
0.66 0.03 0.0
0.67 0.03 0.0
0.68 0.03 0.0
0.6900000000000001 0.03 0.0
0.7000000000000001 0.03 0.0
0.71 0.03 0.0
0.72 0.03 0.0
0.73 0.03 0.0
0.74 0.03 0.0
0.75 0.03 0.0
0.76 0.03 0.0
0.77 0.03 0.0
0.78 0.03 0.0
0.79 0.03 0.0
0.8 0.03 0.0
0.81 0.03 0.0
0.8200000000000001 0.03 0.0
0.8300000000000001 0.03 0.0
0.84 0.03 0.0
0.85 0.03 0.0
0.86 0.03 0.0
0.87 0.03 0.0
0.88 0.03 0.0
0.89 0.03 0.0
0.9 0.03 0.0
0.91 0.03 0.0
0.92 0.03 0.0
0.93 0.03 0.0
0.9400000000000001 0.03 0.0
0.9500000000000001 0.03 0.0
0.96 0.03 0.0
0.97 0.03 0.0
0.98 0.03 0.0
0.99 0.03 0.0
1.0 0.03 0.0
0.0 0.04 0.0
0.01 0.04 0.0
0.02 0.04 0.0
0.03 0.04 0.0
0.04 0.04 0.0
0.05 0.04 0.0
0.06 0.04 0.0
0.07 0.04 0.0
0.08 0.04 0.0
0.09 0.04 0.0
0.1 0.04 0.0
0.11 0.04 0.0
0.12 0.04 0.0
0.13 0.04 0.0
0.14 0.04 0.0
0.15 0.04 0.0
0.16 0.04 0.0
0.17 0.04 0.0
0.18 0.04 0.0
0.19 0.04 0.0
0.2 0.04 0.0
0.21 0.04 0.0
0.22 0.04 0.0
0.23 0.04 0.0
0.24 0.04 0.0
0.25 0.04 0.0
0.26 0.04 0.0
0.27 0.04 0.0
0.28 0.04 0.0
0.29 0.04 0.0
0.3 0.04 0.0
0.31 0.04 0.0
0.32 0.04 0.0
0.33 0.04 0.0
0.34 0.04 0.0
0.35000000000000003 0.04 0.0
0.36 0.04 0.0
0.37 0.04 0.0
0.38 0.04 0.0
0.39 0.04 0.0
0.4 0.04 0.0
0.41000000000000003 0.04 0.0
0.42 0.04 0.0
0.43 0.04 0.0
0.44 0.04 0.0
0.45 0.04 0.0
0.46 0.04 0.0
0.47000000000000003 0.04 0.0
0.48 0.04 0.0
0.49 0.04 0.0
0.5 0.04 0.0
0.51 0.04 0.0
0.52 0.04 0.0
0.53 0.04 0.0
0.54 0.04 0.0
0.55 0.04 0.0
0.56 0.04 0.0
0.5700000000000001 0.04 0.0
0.58 0.04 0.0
0.59 0.04 0.0
0.6 0.04 0.0
0.61 0.04 0.0
0.62 0.04 0.0
0.63 0.04 0.0
0.64 0.04 0.0
0.65 0.04 0.0
0.66 0.04 0.0
0.67 0.04 0.0
0.68 0.04 0.0
0.6900000000000001 0.04 0.0
0.7000000000000001 0.04 0.0
0.71 0.04 0.0
0.72 0.04 0.0
0.73 0.04 0.0
0.74 0.04 0.0
0.75 0.04 0.0
0.76 0.04 0.0
0.77 0.04 0.0
0.78 0.04 0.0
0.79 0.04 0.0
0.8 0.04 0.0
0.81 0.04 0.0
0.8200000000000001 0.04 0.0
0.8300000000000001 0.04 0.0
0.84 0.04 0.0
0.85 0.04 0.0
0.86 0.04 0.0
0.87 0.04 0.0
0.88 0.04 0.0
0.89 0.04 0.0
0.9 0.04 0.0
0.91 0.04 0.0
0.92 0.04 0.0
0.93 0.04 0.0
0.9400000000000001 0.04 0.0
0.9500000000000001 0.04 0.0
0.96 0.04 0.0
0.97 0.04 0.0
0.98 0.04 0.0
0.99 0.04 0.0
1.0 0.04 0.0
0.0 0.05 0.0
0.01 0.05 0.0
0.02 0.05 0.0
0.03 0.05 0.0
0.04 0.05 0.0
0.05 0.05 0.0
0.06 0.05 0.0
0.07 0.05 0.0
0.08 0.05 0.0
0.09 0.05 0.0
0.1 0.05 0.0
0.11 0.05 0.0
0.12 0.05 0.0
0.13 0.05 0.0
0.14 0.05 0.0
0.15 0.05 0.0
0.16 0.05 0.0
0.17 0.05 0.0
0.18 0.05 0.0
0.19 0.05 0.0
0.2 0.05 0.0
0.21 0.05 0.0
0.22 0.05 0.0
0.23 0.05 0.0
0.24 0.05 0.0
0.25 0.05 0.0
0.26 0.05 0.0
0.27 0.05 0.0
0.28 0.05 0.0
0.29 0.05 0.0
0.3 0.05 0.0
0.31 0.05 0.0
0.32 0.05 0.0
0.33 0.05 0.0
0.34 0.05 0.0
0.35000000000000003 0.05 0.0
0.36 0.05 0.0
0.37 0.05 0.0
0.38 0.05 0.0
0.39 0.05 0.0
0.4 0.05 0.0
0.41000000000000003 0.05 0.0
0.42 0.05 0.0
0.43 0.05 0.0
0.44 0.05 0.0
0.45 0.05 0.0
0.46 0.05 0.0
0.47000000000000003 0.05 0.0
0.48 0.05 0.0
0.49 0.05 0.0
0.5 0.05 0.0
0.51 0.05 0.0
0.52 0.05 0.0
0.53 0.05 0.0
0.54 0.05 0.0
0.55 0.05 0.0
0.56 0.05 0.0
0.5700000000000001 0.05 0.0
0.58 0.05 0.0
0.59 0.05 0.0
0.6 0.05 0.0
0.61 0.05 0.0
0.62 0.05 0.0
0.63 0.05 0.0
0.64 0.05 0.0
0.65 0.05 0.0
0.66 0.05 0.0
0.67 0.05 0.0
0.68 0.05 0.0
0.6900000000000001 0.05 0.0
0.7000000000000001 0.05 0.0
0.71 0.05 0.0
0.72 0.05 0.0
0.73 0.05 0.0
0.74 0.05 0.0
0.75 0.05 0.0
0.76 0.05 0.0
0.77 0.05 0.0
0.78 0.05 0.0
0.79 0.05 0.0
0.8 0.05 0.0
0.81 0.05 0.0
0.8200000000000001 0.05 0.0
0.8300000000000001 0.05 0.0
0.84 0.05 0.0
0.85 0.05 0.0
0.86 0.05 0.0
0.87 0.05 0.0
0.88 0.05 0.0
0.89 0.05 0.0
0.9 0.05 0.0
0.91 0.05 0.0
0.92 0.05 0.0
0.93 0.05 0.0
0.9400000000000001 0.05 0.0
0.9500000000000001 0.05 0.0
0.96 0.05 0.0
0.97 0.05 0.0
0.98 0.05 0.0
0.99 0.05 0.0
1.0 0.05 0.0
0.0 0.06 0.0
0.01 0.06 0.0
0.02 0.06 0.0
0.03 0.06 0.0
0.04 0.06 0.0
0.05 0.06 0.0
0.06 0.06 0.0
0.07 0.06 0.0
0.08 0.06 0.0
0.09 0.06 0.0
0.1 0.06 0.0
0.11 0.06 0.0
0.12 0.06 0.0
0.13 0.06 0.0
0.14 0.06 0.0
0.15 0.06 0.0
0.16 0.06 0.0
0.17 0.06 0.0
0.18 0.06 0.0
0.19 0.06 0.0
0.2 0.06 0.0
0.21 0.06 0.0
0.22 0.06 0.0
0.23 0.06 0.0
0.24 0.06 0.0
0.25 0.06 0.0
0.26 0.06 0.0
0.27 0.06 0.0
0.28 0.06 0.0
0.29 0.06 0.0
0.3 0.06 0.0
0.31 0.06 0.0
0.32 0.06 0.0
0.33 0.06 0.0
0.34 0.06 0.0
0.35000000000000003 0.06 0.0
0.36 0.06 0.0
0.37 0.06 0.0
0.38 0.06 0.0
0.39 0.06 0.0
0.4 0.06 0.0
0.41000000000000003 0.06 0.0
0.42 0.06 0.0
0.43 0.06 0.0
0.44 0.06 0.0
0.45 0.06 0.0
0.46 0.06 0.0
[...]
POINT_DATA  10201
FIELD  FlowField  5
Density    1 10201  double
8.301193242874934
8.197556788478373
7.9121858885749035
7.528267875559672
7.120204135624544
6.713474020343112
6.322078208505608
5.954277204368207
5.614759315037853
5.30626078723577
5.0304082085237605
4.787963061007032
4.5788385889233325
4.402142133194488
4.2563182591188315
4.139360441806888
4.049025644461503
3.9830161819721646
3.9391202655546422
3.915299505984703
3.9096886426515653
3.9205616255959113
3.9463369310491796
3.985564049987981
4.0369048241386505
4.099147227439763
4.1711926476810515
4.2520295395446785
4.340731308347719
4.436466028093321
4.538510363527938
4.6462587058615
4.759229923104488
4.877080535142426
4.999624325384389
5.126841151219981
5.2588637966721254
5.395954214666542
5.538492278888741
5.6869560621745165
5.8418829873173035
6.003834985059809
6.173353244590441
6.350901076886449
6.536801031259653
6.731166042914753
6.933829956154474
7.144284724284746
7.361630601560709
7.584544007668255
7.81126613725954
8.039612451182087
8.266999292734678
8.490479633543567
8.706775517673353
8.912293848256134
9.103112034547749
9.274921121923066
9.422915829954217
9.541615335677143
9.624607918153512
9.66422733348218
9.651131355245843
9.573902980901991
9.418766591606337
9.169483631415241
8.808208663637352
8.318017904977172
7.6866409742458135
6.910677567001462
6.000728753364591
4.987364860510464
3.9252921617514867
2.897376648268572
2.0197140218391456
1.4130992134394489
1.1124749781915166
1.0190671974855756
1.0023432408756225
1.0002639381607796
1.0000290068802808
1.000003135522625
1.0000003339829573
1.0000000351011482
1.0000000036445202
1.0000000003742597
1.00000000003805
1.0000000000038334
1.0000000000003828
1.0000000000000377
1.0000000000000036
1.0
1.0
1.0
1.0
1.0
1.0
1.0
1.0
1.0
1.0
8.187823824404811
8.062072316587214
7.729077207833453
7.30102709391486
6.86135933617537
6.4338459648675315
6.031427417621384
5.66090575291575
5.325105993177895
5.024758275381981
4.759602340020081
4.528830864797582
4.3311942149670575
4.165028499439966
4.028326217885329
3.9188567507054897
3.8342985727292076
3.77235714159586
3.7308622647743315
3.707831106773811
3.7014678338361438
3.7101311572216944
3.732329511342736
3.766725207982871
3.8121179438212383
3.867425958301076
3.9316705764893403
4.0039579866097395
4.083473425556627
4.1694810190771365
4.261311658107729
4.358361123021079
4.46015260927152
4.5663831734527855
4.676905018042494
4.7917158761640595
4.910948261414363
5.034852720378189
5.163792277889684
5.298222350196713
5.438661565564537
5.58566999112321
5.73981486626802
5.901624887848758
6.0715385194065155
6.249843686909402
6.436612120885533
6.631634158126747
6.834359217275275
7.043845963123685
7.258725171356875
7.477175983959872
7.696913096760309
7.915178606247617
8.128726785265043
8.333787817859472
8.525996435841279
8.70027004757216
8.850637535584251
8.969951097735796
9.049370454951225
9.078004047803251
9.043005673715042
8.930107922837774
8.724694446507609
8.413577586437466
7.98793902393913
7.44805739640318
6.808087896595035
6.095129513657951
5.33993439554093
4.56383498134603
3.775329002809065
2.9869770726665594
2.2449140496844073
1.6378983873170017
1.245817639119446
1.0647457996001832
1.0108549419541908
1.001312448852563
1.000144278549293
1.0000154481910903
1.0000016277055157
1.0000001692083669
1.0000000173813928
1.0000000017664425
1.000000000177795
1.0000000000177391
1.0000000000017555
1.000000000000172
1.0000000000000164
1.0000000000000013
1.0
1.0
1.0
1.0
1.0
1.0
1.0
1.0
1.0
7.932003043514893
7.751588489350265
7.302461767534636
6.769857648248122
6.259036449167314
5.788231356809728
5.3660231952151
4.994561313684908
4.671701451318757
4.39337002064816
4.155079100636919
3.952631214490188
3.782313006594178
3.6408506467237967
3.525311201219223
3.4330251077062583
3.36153783584946
3.3085927475307577
3.2721384859690934
3.2503385919883545
3.241561631290288
3.2443543649884266
3.2574304683502917
3.279681298873413
3.310158862050357
3.3480396113860484
3.3926141136057844
3.4432739709707905
3.4994990176762837
3.560851714598443
3.6269605683163983
3.6974954572320353
3.772145960107105
3.8506393325561343
3.9328660513424802
4.018878406100111
4.108778961481422
4.202757325082406
4.301109313804033
4.40419703613505
4.512444987104667
4.626350833473456
4.746479029555372
4.873444195030042
5.0078871041754445
5.150437519097332
5.30166158411207
5.461994240805594
5.63165893394847
5.8105761765561486
5.9982619063534
6.1937169300354995
6.395306099888101
6.600622139576472
6.80632347835102
7.007925181831484
7.1995338885210405
7.373287320114485
7.5184655910957
7.621126224659113
7.664529841353841
7.630286191991941
7.5009563677358395
7.2645795094563965
6.921461951914513
6.490931111052076
6.011778844757875
5.5309598711146695
5.085140046238758
4.6910907596350535
4.345109774788586
4.021846593835992
3.677037813107678
3.261629813327904
2.7498755553242136
2.174024631586927
1.6361545688152157
1.2549920378006436
1.0684611427331787
1.011439508580094
1.0013494478208333
1.0001440857981965
1.0000150089329496
1.0000015416792993
1.0000001565323853
1.000000015731049
1.0000000015664123
1.000000000154678
1.000000000015158
1.0000000000014744
1.000000000000142
1.0000000000000135
1.000000000000001
1.0
1.0
1.0
1.0
1.0
1.0
1.0
1.0
7.62778748092316
7.375610062829821
6.778945012389691
6.122117586051306
5.535911100193526
5.027642292817973
4.59643883270874
4.236248336775368
3.937857620137563
3.691428793310598
3.4880211358716244
3.3201750011674576
3.1819440461911457
3.068667404149039
2.9766641617284866
2.902953395900302
2.84504253687184
2.800793516375876
2.7683512814934517
2.746105189036067
2.7326623231374993
2.726826175556423
2.727588658643511
2.734124492706699
2.7457709904151004
2.762010061475746
2.7824601453079576
2.8068565694164023
2.8350430901389143
2.8669737882379964
2.9026887621520534
2.942227157428982
2.9854911700882254
3.032377894368405
3.0830099429182805
3.137572377647449
3.1961304459998363
3.258750826688694
3.3255576683637242
3.396702057678209
3.4724029202131153
3.5529742804909707
3.6388449068027398
3.730574520732459
3.8288606889593666
3.9345314768325976
4.048514287806612
4.1717747499529025
4.305220810499696
4.449567024523275
4.605153794612398
4.771713785893323
4.948081530660737
5.131836925870763
5.318873548012119
5.502590181903094
5.672490941348589
5.813368095167355
5.905751129690402
5.927896432131228
5.860804510071411
5.696650923459287
5.447448539699561
5.146610388673853
4.838117366981614
4.560320816001452
4.338857778038683
4.186016656429884
4.097616915455986
4.05194680636289
4.01482894240973
3.9494374235209664
3.822142261735828
3.6005826348185637
3.255437038555641
2.7771645638381286
2.207883123130612
1.6597745948898726
1.2649885979152522
1.0706859188504245
1.011592779917029
1.001329172255641
1.0001380093489436
1.0000140138312354
1.0000014061500768
1.000000139715692
1.0000000137616172
1.000000001344845
1.000000000130485
1.000000000012577
1.0000000000012048
1.0000000000001146
1.0000000000000107
1.0000000000000007
1.0
1.0
1.0
1.0
1.0
1.0
1.0
7.264008817115792
6.92632290268519
6.169233154366724
5.3978083518507525
4.757135404806326
4.2357749561816425
3.818024550744709
3.486769864371372
3.224974015075585
3.0175594189699275
2.8522210660639438
2.719411794276557
2.6119510417195846
2.5245200945394566
2.453169796889873
2.394907066181484
2.3473928810411318
2.308744376570135
2.2774168768823113
2.2521361057261267
2.2318587793248406
2.215749612658596
2.203168413908035
2.1936552713514197
2.1869098246876115
2.182775005490558
2.181219936340971
2.1823157275841445
2.186226352542789
2.193188499759845
2.203416190539067
2.2169758579690058
2.234058368673748
2.2550815613317843
2.280437501639615
2.3103472183163687
2.344786192547159
2.3836714901665155
2.42690751862143
2.4743593401440727
2.5259696509273275
2.5818059171021304
2.6420799947615965
2.707174648908677
2.7776639565928485
2.8543247190186345
2.9381250226288613
3.0301741796534114
3.13162015986689
3.2434766350797695
3.3663586621721837
3.500099837130361
3.6432387764506813
3.792215109790398
3.9398170212666397
4.073767336521729
4.1766680520648745
4.228430617312025
4.213079580513074
4.128672871561443
3.99362026527789
3.842425641200107
3.7123654333933285
3.6317989593543714
3.6146897221711596
3.6575957591343933
3.740093195040613
3.8338200394121387
3.917162291838662
3.979495884208607
4.014322328744025
4.013515156211956
3.9640196675029884
3.8455584364566064
3.6303064406314474
3.288816254444396
2.809184393288617
2.231862905175866
1.6718137940142601
1.2677487255970261
1.0702034355156915
1.011189881665859
1.0012444220242642
1.0001258801769939
1.000012487031185
1.0000012263687412
1.0000001194558232
1.0000000115503438
1.0000000011093735
1.0000000001059024
1.0000000000100528
1.000000000000949
1.0000000000000886
1.000000000000008
1.0000000000000007
1.0
1.0
1.0
1.0
1.0
1.0
6.774892887023139
6.3465328975091975
5.447362115308829
4.609029253948902
3.9591913233264773
3.46214667970293
3.085194349149825
2.800369865166972
2.5844609782716788
2.4192706779473077
2.291116263078295
2.1899670664099276
2.1085911208460133
2.041825581330141
1.985990134646801
1.9384369823297822
1.897226976505683
1.8609128915341975
1.828403267615701
1.7988801283907954
1.7717499732259891
1.7466136325310935
1.7232445246381682
1.701567114601167
1.6816344538459
1.6636074836537285
1.6477314155249085
1.6343086699671505
1.6236746033081757
1.6161485536302205
1.6119179072737357
1.6111808260813336
1.6144480239606511
1.6222108985896055
1.6346914586011732
1.6519554312383393
1.6738456068306222
1.7001078806077254
1.7304461008804715
1.7645282668284716
1.8021113017831591
1.8430872959136086
1.8875109666167258
1.9356069075188884
1.98777355357988
2.0445928386643244
2.1068175149351864
2.1753173174568254
2.250960753130776
2.3343977240292055
2.4257063630622167
2.5238217677909875
2.62540112848054
2.7234048470582017
2.8063615552687065
2.85985618400254
2.872437121132682
2.844707617963552
2.7948948479725386
2.7541712196476587
2.7538879605857756
2.8131189343161744
2.9316897402473288
3.0908571737635544
3.2638703940202243
3.430848937893733
3.582826527496777
3.716257361549413
3.829291391231401
3.9203290723180912
3.9870855061848878
4.0254650468641255
4.027996250873294
3.981766858132727
3.8662578929718725
3.6528355522057114
3.310567439699282
2.8259222426733945
2.239556048429055
1.6705597293236438
1.2629305167060687
1.0670542812316557
1.0102858946518765
1.0011077061091764
1.0001093773483714
1.00001062200397
1.0000010230284917
1.0000000978565562
1.0000000093026822
1.0000000008793766
1.0000000000826965
1.0000000000077391
1.0000000000007208
1.0000000000000666
1.0000000000000058
1.0000000000000004
1.0
1.0
1.0
1.0
1.0
6.069786147868083
5.579341287768184
4.615079654300997
3.7926762329153987
3.190674048383437
2.7539428838206934
2.4381084275180744
2.209073141450171
2.041215139949501
1.9160097790294257
1.8203468703406547
1.7450322774318932
1.683668573150666
1.6318514263805435
1.5865853193376822
1.545855370443597
1.5083203994264953
1.473102070504858
1.4396466147760925
1.4076374753863627
1.3769407715078297
1.3475693620135478
1.3196552617206174
1.2934244478746888
1.269172331819351
1.2472394666298925
1.2279857286736036
1.2117637054166763
1.1988920529137983
1.1896214690823559
1.1841209383844102
1.1827017549211012
1.1856567699123495
1.1929374691055665
1.2043535817646123
1.2196987513423982
1.2386843442106072
1.2609549026280682
1.2861354013870685
1.3138709402047044
1.3438965075720908
1.3760653976617654
1.4103851954851134
1.4469991953628933
1.4861471013546028
1.5281605346534977
1.5734277608398695
1.6223054456977282
1.674956748334526
1.7310597679532371
1.789228714056705
1.8462003929274633
1.8961319350349288
1.9309446153184475
1.9437656174587628
1.9355324354353034
1.92050084786786
1.9242959787591838
1.9730618792588384
2.0804340958836858
2.241162898697896
2.4360063733886594
2.6444639459106316
2.853236112837045
3.055041854911915
3.245204280751641
3.4202664293043323
3.5776220863907335
3.715363006683929
3.832029030574092
3.9261608035838775
3.9955776952136914
4.036273727593651
4.040803923413183
3.9961166869526217
3.8812314592182884
3.6665758198222234
3.319923881052379
2.8270820980306164
2.2308673200814297
1.6561347640513104
1.2508874378894306
1.0615581059866463
1.0090013259109898
1.0009379566825831
1.0000905923431653
1.0000086305719442
1.000000816647968
1.0000000768355304
1.0000000071919803
1.0000000006699998
1.0000000000621434
1.0000000000057403
1.0000000000005278
1.000000000000048
1.000000000000004
1.0000000000000002
1.0
1.0
1.0
1.0
5.120422154390191
4.639200983957295
3.738226027648649
3.019384892986066
2.5095645489012233
2.1517586837929175
1.9020727241372362
1.7269230530250241
1.6018712140528133
1.5100386688903988
1.4400003859733181
1.3840656869207328
1.3371029812478057
1.295758419395843
1.2579164935444862
1.2223126708315208
1.1882543365532383
1.1554257962133516
1.12375815639526
1.0933462192277958
1.0643961990250068
1.0371909944557445
1.0120637746155488
0.9893748101489346
0.9694894065397391
0.9527560657456995
0.9394846164651487
0.9299254328589222
0.9242516237079542
0.9225481253013821
0.9248727036464406
0.9312214836921139
0.9413411507961965
0.9547638051677403
0.9709913060463781
0.9895660882722903
1.010076628527236
1.0321510230625683
1.0554612239392966
1.0797395515718522
1.1047886858198117
1.130481760145215
1.1567987137748568
1.1837912408403535
1.2114921309333835
1.2398805259173427
1.2688140996099049
1.2978708185581365
1.3260992619879648
1.3516985809355964
1.371714080254121
1.3821536263086829
1.3796488539348817
1.36522680932358
1.3484731267168
1.3479427616758437
1.3846384560565734
1.4714784222425414
1.6070447430443822
1.7793743064839187
1.9751001861384565
2.184551270436204
2.401122517177575
2.61939514308516
2.834360111399146
3.0413724452554325
3.2363098672199655
3.4157233995825758
3.57693049093008
3.7179745889144282
3.8373920045771666
3.9337562197973552
4.004930799656172
4.0469202386217145
4.0521825816349555
4.007349799755281
3.8907662544891286
3.671770999046899
3.3170281523485894
2.8127214481820646
2.205979297992651
1.6291063195834414
1.2324123681267138
1.0542453858811116
1.0074957993743714
1.0007560429694635
1.0000715782982665
1.0000067025967758
1.0000006241660786
1.0000000578523678
1.0000000053392304
1.000000000490809
1.0000000000449514
1.0000000000041025
1.000000000000373
1.0000000000000333
1.0000000000000027
1.0000000000000002
1.0
1.0
1.0
4.072665429087181
3.670205213635921
2.9362260970566396
2.3659583322688027
1.9590637921873186
1.67608842019454
1.483524045009907
1.352275874661643
1.2606022443662361
1.1938417421695333
1.1424710156598978
1.100388753190114
1.0637617871961558
1.0302837029567484
0.9986779677857878
0.9683478600538812
0.9391272617923443
0.9111088539091639
0.8845321436991067
0.8597147190265537
0.8370113763011584
0.816788687062519
0.7994065675544562
0.7852021419925017
0.77447359480117
0.7674630372481304
0.7643384998127356
0.7651766808354172
0.7699497541380951
0.7785208683675237
0.7906803277259206
0.8060494533023121
0.824037578122998
0.8439936708659291
0.865303833704225
0.8874268278503417
0.9098926270667358
0.9323055890856145
0.9543585380616482
0.9758368797068757
0.996575876032347
1.0164067201712865
1.035177882521429
1.0527095135378253
1.0686659929273377
1.0824794365845491
1.0932590999824918
1.099666929564701
1.0998497126742404
1.091646932089239
1.073542705135192
1.0466622969664745
1.0172206599927915
0.9974398885823433
1.0026156698399316
1.0446774113194777
1.1268018796646075
1.2442345166272404
1.389900239665346
1.5582935973035807
1.7455014658624362
1.9479624168434955
2.16171329280108
2.382226218376161
2.6045708139234045
2.823712191857053
3.0348407851240538
3.2336459248794416
3.4165238728693383
3.5806983158980663
3.724172217033692
3.845482279887352
3.9432221118052633
4.015259767036575
4.057531978810108
4.062270043345793
4.015598270796666
3.8949505192971614
3.668411377044235
3.3017545289186176
2.7827483661691907
2.1652186657540886
1.5904624555911864
1.2086886640146544
1.0457918061249694
1.005937394130853
1.0005806198866825
1.000053997696114
1.0000049789372119
1.0000004570360141
1.000000041791652
1.0000000038078851
1.000000000345812
1.0000000000313078
1.0000000000028262
1.000000000000254
1.0000000000000222
1.0000000000000018
1.0
1.0
1.0
3.201706977516058
2.8858234186455203
2.3151459310230895
1.871435251277445
1.5477094602659238
1.3222559756295673
1.1720054579239867
1.0724367292435728
1.004353721910159
0.955054977916331
0.9166576073033035
0.884414798841451
0.8555788891284228
0.8286857880134189
0.8030899273140519
0.7786484911002118
0.7555058370243807
0.733952113277256
0.7143370497691719
0.6970219289151021
0.6823547893256386
0.6706572216374325
0.6622150720767799
0.6572688004324287
0.6560014810445649
0.6585238657600921
0.6648572606574473
0.6749167803538727
0.6885004972627313
0.705293523967822
0.7248805108276429
0.7466977881881306
0.7700648996286812
0.7943002211116763
0.8187718192866094
0.8428977705637879
0.8661365562129895
0.8880240432944257
0.9081939401443644
0.926349336489012
0.9422054585528581
0.9554147245840856
0.9655429840745007
0.9720163242720221
0.9740191691214314
0.9704680894275831
0.9600808216766552
0.9416355444804947
0.9145999707292217
0.8802274377617493
0.8428061415724227
0.8101472782242018
0.792258395545558
0.7980676838264473
0.8319760084652879
0.8932827769273294
0.9790757763546208
1.0871868488304506
1.2167484739092218
1.3673303462772985
1.5380824292626896
1.7272581659398365
1.9320485588494323
2.1486358205486664
2.3724011015365463
2.5982342605108943
2.8209015038490977
3.035398056614749
3.237240387664369
3.422706075751297
3.5889575000593217
3.7339799332681185
3.8563193764619386
3.95457788827645
4.0265864385594945
4.0681300417983
4.07107190091767
4.020819524787655
3.893641750998946
3.656203217712024
3.273696194243948
2.7369475795003133
2.1091168452084013
1.5416368134875942
1.1812219612427135
1.03693332706658
1.004472820406482
1.0004252652952976
1.0000389299470076
1.0000035405151295
1.0000003208312012
1.0000000289808912
1.00000000261017
1.0000000002344382
1.0000000000210019
1.0000000000018767
1.000000000000167
1.0000000000000147
1.000000000000001
1.0
1.0
2.6597906216660556
2.386408230264286
1.896637007694296
1.5231662932504657
1.2544070484609129
1.0688237729687409
0.9475976732673019
0.8693502773202366
0.8169587706217194
0.7792973905188387
0.7497605490130613
0.7246227959160396
0.7019184329249951
0.6807478031237277
0.6608430307974329
0.6422887655334374
0.6253435916367586
0.6103314712303662
0.5975817355712976
0.5874003599741875
0.5800586088844649
0.5757887826432544
0.5747806227302803
0.5771751682450448
0.5830549879948318
0.5924310513767044
0.6052277010826435
0.6212688435464232
0.6402720179431782
0.661862178916871
0.685567231785212
0.7107868443238352
0.7368220116705184
0.7629398673683092
0.7884129911512091
0.8125048726865634
0.8344999646142477
0.85378674164031
0.8698517877270581
0.8822194338705949
0.8903912140373028
0.8937960856479223
0.8917751998523272
0.8836017883440107
0.8685684358444019
0.8462355517712739
0.816876937765532
0.7820464892561549
0.7450397684662775
0.7108991317651553
0.6856407183088447
0.6746852731829492
0.6811322405349272
0.7052292421248157
0.745762168111123
0.8020090356474321
0.8745110492147006
0.9646909354611315
1.0741818905511176
1.2042726912426454
1.3555057261965857
1.5274024516408207
1.7183108239067193
1.9253808287367535
2.1446746001631785
2.371404868615316
2.600272720466678
2.825859187754528
3.0429865141203183
3.247035755229234
3.4342094258808054
3.601643817003056
3.747331658215332
3.869838369865716
3.9677617961982343
4.038848624574661
4.078638057056722
4.078469067813188
4.022802253028681
3.8864694231771697
3.6345719569205155
3.232189590837757
2.6750545480648977
2.0385099369859048
1.4845249528650966
1.151738267807688
1.0283745840238936
1.003205723736584
1.000297402722904
1.00002684975733
1.0000024121189208
1.0000002160672166
1.0000000193041527
1.0000000017205064
1.000000000152991
1.0000000000135745
1.000000000001202
1.0000000000001061
1.000000000000009
1.0000000000000007
1.0
2.363789377375554
2.09675931095581
1.6248644248632245
1.2814555722396133
1.0472805957470355
0.8894248162580556
0.7881494017551232
0.7240957305831857
0.6819742912972611
0.6519909496128995