# vtk DataFile Version 3.0 
shock_diffraction_time_series_337_.vtk
ASCII
DATASET UNSTRUCTURED_GRID
POINTS         10201 double
0.0 0.0 0.0
0.01 0.0 0.0
0.02 0.0 0.0
0.03 0.0 0.0
0.04 0.0 0.0
0.05 0.0 0.0
0.06 0.0 0.0
0.07 0.0 0.0
0.08 0.0 0.0
0.09 0.0 0.0
0.1 0.0 0.0
0.11 0.0 0.0
0.12 0.0 0.0
0.13 0.0 0.0
0.14 0.0 0.0
0.15 0.0 0.0
0.16 0.0 0.0
0.17 0.0 0.0
0.18 0.0 0.0
0.19 0.0 0.0
0.2 0.0 0.0
0.21 0.0 0.0
0.22 0.0 0.0
0.23 0.0 0.0
0.24 0.0 0.0
0.25 0.0 0.0
0.26 0.0 0.0
0.27 0.0 0.0
0.28 0.0 0.0
0.29 0.0 0.0
0.3 0.0 0.0
0.31 0.0 0.0
0.32 0.0 0.0
0.33 0.0 0.0
0.34 0.0 0.0
0.35000000000000003 0.0 0.0
0.36 0.0 0.0
0.37 0.0 0.0
0.38 0.0 0.0
0.39 0.0 0.0
0.4 0.0 0.0
0.41000000000000003 0.0 0.0
0.42 0.0 0.0
0.43 0.0 0.0
0.44 0.0 0.0
0.45 0.0 0.0
0.46 0.0 0.0
0.47000000000000003 0.0 0.0
0.48 0.0 0.0
0.49 0.0 0.0
0.5 0.0 0.0
0.51 0.0 0.0
0.52 0.0 0.0
0.53 0.0 0.0
0.54 0.0 0.0
0.55 0.0 0.0
0.56 0.0 0.0
0.5700000000000001 0.0 0.0
0.58 0.0 0.0
0.59 0.0 0.0
0.6 0.0 0.0
0.61 0.0 0.0
0.62 0.0 0.0
0.63 0.0 0.0
0.64 0.0 0.0
0.65 0.0 0.0
0.66 0.0 0.0
0.67 0.0 0.0
0.68 0.0 0.0
0.6900000000000001 0.0 0.0
0.7000000000000001 0.0 0.0
0.71 0.0 0.0
0.72 0.0 0.0
0.73 0.0 0.0
0.74 0.0 0.0
0.75 0.0 0.0
0.76 0.0 0.0
0.77 0.0 0.0
0.78 0.0 0.0
0.79 0.0 0.0
0.8 0.0 0.0
0.81 0.0 0.0
0.8200000000000001 0.0 0.0
0.8300000000000001 0.0 0.0
0.84 0.0 0.0
0.85 0.0 0.0
0.86 0.0 0.0
0.87 0.0 0.0
0.88 0.0 0.0
0.89 0.0 0.0
0.9 0.0 0.0
0.91 0.0 0.0
0.92 0.0 0.0
0.93 0.0 0.0
0.9400000000000001 0.0 0.0
0.9500000000000001 0.0 0.0
0.96 0.0 0.0
0.97 0.0 0.0
0.98 0.0 0.0
0.99 0.0 0.0
1.0 0.0 0.0
0.0 0.01 0.0
0.01 0.01 0.0
0.02 0.01 0.0
0.03 0.01 0.0
0.04 0.01 0.0
0.05 0.01 0.0
0.06 0.01 0.0
0.07 0.01 0.0
0.08 0.01 0.0
0.09 0.01 0.0
0.1 0.01 0.0
0.11 0.01 0.0
0.12 0.01 0.0
0.13 0.01 0.0
0.14 0.01 0.0
0.15 0.01 0.0
0.16 0.01 0.0
0.17 0.01 0.0
0.18 0.01 0.0
0.19 0.01 0.0
0.2 0.01 0.0
0.21 0.01 0.0
0.22 0.01 0.0
0.23 0.01 0.0
0.24 0.01 0.0
0.25 0.01 0.0
0.26 0.01 0.0
0.27 0.01 0.0
0.28 0.01 0.0
0.29 0.01 0.0
0.3 0.01 0.0
0.31 0.01 0.0
0.32 0.01 0.0
0.33 0.01 0.0
0.34 0.01 0.0
0.35000000000000003 0.01 0.0
0.36 0.01 0.0
0.37 0.01 0.0
0.38 0.01 0.0
0.39 0.01 0.0
0.4 0.01 0.0
0.41000000000000003 0.01 0.0
0.42 0.01 0.0
0.43 0.01 0.0
0.44 0.01 0.0
0.45 0.01 0.0
0.46 0.01 0.0
0.47000000000000003 0.01 0.0
0.48 0.01 0.0
0.49 0.01 0.0
0.5 0.01 0.0
0.51 0.01 0.0
0.52 0.01 0.0
0.53 0.01 0.0
0.54 0.01 0.0
0.55 0.01 0.0
0.56 0.01 0.0
0.5700000000000001 0.01 0.0
0.58 0.01 0.0
0.59 0.01 0.0
0.6 0.01 0.0
0.61 0.01 0.0
0.62 0.01 0.0
0.63 0.01 0.0
0.64 0.01 0.0
0.65 0.01 0.0
0.66 0.01 0.0
0.67 0.01 0.0
0.68 0.01 0.0
0.6900000000000001 0.01 0.0
0.7000000000000001 0.01 0.0
0.71 0.01 0.0
0.72 0.01 0.0
0.73 0.01 0.0
0.74 0.01 0.0
0.75 0.01 0.0
0.76 0.01 0.0
0.77 0.01 0.0
0.78 0.01 0.0
0.79 0.01 0.0
0.8 0.01 0.0
0.81 0.01 0.0
0.8200000000000001 0.01 0.0
0.8300000000000001 0.01 0.0
0.84 0.01 0.0
0.85 0.01 0.0
0.86 0.01 0.0
0.87 0.01 0.0
0.88 0.01 0.0
0.89 0.01 0.0
0.9 0.01 0.0
0.91 0.01 0.0
0.92 0.01 0.0
0.93 0.01 0.0
0.9400000000000001 0.01 0.0
0.9500000000000001 0.01 0.0
0.96 0.01 0.0
0.97 0.01 0.0
0.98 0.01 0.0
0.99 0.01 0.0
1.0 0.01 0.0
0.0 0.02 0.0
0.01 0.02 0.0
0.02 0.02 0.0
0.03 0.02 0.0
0.04 0.02 0.0
0.05 0.02 0.0
0.06 0.02 0.0
0.07 0.02 0.0
0.08 0.02 0.0
0.09 0.02 0.0
0.1 0.02 0.0
0.11 0.02 0.0
0.12 0.02 0.0
0.13 0.02 0.0
0.14 0.02 0.0
0.15 0.02 0.0
0.16 0.02 0.0
0.17 0.02 0.0
0.18 0.02 0.0
0.19 0.02 0.0
0.2 0.02 0.0
0.21 0.02 0.0
0.22 0.02 0.0
0.23 0.02 0.0
0.24 0.02 0.0
0.25 0.02 0.0
0.26 0.02 0.0
0.27 0.02 0.0
0.28 0.02 0.0
0.29 0.02 0.0
0.3 0.02 0.0
0.31 0.02 0.0
0.32 0.02 0.0
0.33 0.02 0.0
0.34 0.02 0.0
0.35000000000000003 0.02 0.0
0.36 0.02 0.0
0.37 0.02 0.0
0.38 0.02 0.0
0.39 0.02 0.0
0.4 0.02 0.0
0.41000000000000003 0.02 0.0
0.42 0.02 0.0
0.43 0.02 0.0
0.44 0.02 0.0
0.45 0.02 0.0
0.46 0.02 0.0
0.47000000000000003 0.02 0.0
0.48 0.02 0.0
0.49 0.02 0.0
0.5 0.02 0.0
0.51 0.02 0.0
0.52 0.02 0.0
0.53 0.02 0.0
0.54 0.02 0.0
0.55 0.02 0.0
0.56 0.02 0.0
0.5700000000000001 0.02 0.0
0.58 0.02 0.0
0.59 0.02 0.0
0.6 0.02 0.0
0.61 0.02 0.0
0.62 0.02 0.0
0.63 0.02 0.0
0.64 0.02 0.0
0.65 0.02 0.0
0.66 0.02 0.0
0.67 0.02 0.0
0.68 0.02 0.0
0.6900000000000001 0.02 0.0
0.7000000000000001 0.02 0.0
0.71 0.02 0.0
0.72 0.02 0.0
0.73 0.02 0.0
0.74 0.02 0.0
0.75 0.02 0.0
0.76 0.02 0.0
0.77 0.02 0.0
0.78 0.02 0.0
0.79 0.02 0.0
0.8 0.02 0.0
0.81 0.02 0.0
0.8200000000000001 0.02 0.0
0.8300000000000001 0.02 0.0
0.84 0.02 0.0
0.85 0.02 0.0
0.86 0.02 0.0
0.87 0.02 0.0
0.88 0.02 0.0
0.89 0.02 0.0
0.9 0.02 0.0
0.91 0.02 0.0
0.92 0.02 0.0
0.93 0.02 0.0
0.9400000000000001 0.02 0.0
0.9500000000000001 0.02 0.0
0.96 0.02 0.0
0.97 0.02 0.0
0.98 0.02 0.0
0.99 0.02 0.0
1.0 0.02 0.0
0.0 0.03 0.0
0.01 0.03 0.0
0.02 0.03 0.0
0.03 0.03 0.0
0.04 0.03 0.0
0.05 0.03 0.0
0.06 0.03 0.0
0.07 0.03 0.0
0.08 0.03 0.0
0.09 0.03 0.0
0.1 0.03 0.0
0.11 0.03 0.0
0.12 0.03 0.0
0.13 0.03 0.0
0.14 0.03 0.0
0.15 0.03 0.0
0.16 0.03 0.0
0.17 0.03 0.0
0.18 0.03 0.0
0.19 0.03 0.0
0.2 0.03 0.0
0.21 0.03 0.0
0.22 0.03 0.0
0.23 0.03 0.0
0.24 0.03 0.0
0.25 0.03 0.0
0.26 0.03 0.0
0.27 0.03 0.0
0.28 0.03 0.0
0.29 0.03 0.0
0.3 0.03 0.0
0.31 0.03 0.0
0.32 0.03 0.0
0.33 0.03 0.0
0.34 0.03 0.0
0.35000000000000003 0.03 0.0
0.36 0.03 0.0
0.37 0.03 0.0
0.38 0.03 0.0
0.39 0.03 0.0
0.4 0.03 0.0
0.41000000000000003 0.03 0.0
0.42 0.03 0.0
0.43 0.03 0.0
0.44 0.03 0.0
0.45 0.03 0.0
0.46 0.03 0.0
0.47000000000000003 0.03 0.0
0.48 0.03 0.0
0.49 0.03 0.0
0.5 0.03 0.0
0.51 0.03 0.0
0.52 0.03 0.0
0.53 0.03 0.0
0.54 0.03 0.0
0.55 0.03 0.0
0.56 0.03 0.0
0.5700000000000001 0.03 0.0
0.58 0.03 0.0
0.59 0.03 0.0
0.6 0.03 0.0
0.61 0.03 0.0
0.62 0.03 0.0
0.63 0.03 0.0
0.64 0.03 0.0
0.65 0.03 0.0
0.66 0.03 0.0
0.67 0.03 0.0
0.68 0.03 0.0
0.6900000000000001 0.03 0.0
0.7000000000000001 0.03 0.0
0.71 0.03 0.0
0.72 0.03 0.0
0.73 0.03 0.0
0.74 0.03 0.0
0.75 0.03 0.0
0.76 0.03 0.0
0.77 0.03 0.0
0.78 0.03 0.0
0.79 0.03 0.0
0.8 0.03 0.0
0.81 0.03 0.0
0.8200000000000001 0.03 0.0
0.8300000000000001 0.03 0.0
0.84 0.03 0.0
0.85 0.03 0.0
0.86 0.03 0.0
0.87 0.03 0.0
0.88 0.03 0.0
0.89 0.03 0.0
0.9 0.03 0.0
0.91 0.03 0.0
0.92 0.03 0.0
0.93 0.03 0.0
0.9400000000000001 0.03 0.0
0.9500000000000001 0.03 0.0
0.96 0.03 0.0
0.97 0.03 0.0
0.98 0.03 0.0
0.99 0.03 0.0
1.0 0.03 0.0
0.0 0.04 0.0
0.01 0.04 0.0
0.02 0.04 0.0
0.03 0.04 0.0
0.04 0.04 0.0
0.05 0.04 0.0
0.06 0.04 0.0
0.07 0.04 0.0
0.08 0.04 0.0
0.09 0.04 0.0
0.1 0.04 0.0
0.11 0.04 0.0
0.12 0.04 0.0
0.13 0.04 0.0
0.14 0.04 0.0
0.15 0.04 0.0
0.16 0.04 0.0
0.17 0.04 0.0
0.18 0.04 0.0
0.19 0.04 0.0
0.2 0.04 0.0
0.21 0.04 0.0
0.22 0.04 0.0
0.23 0.04 0.0
0.24 0.04 0.0
0.25 0.04 0.0
0.26 0.04 0.0
0.27 0.04 0.0
0.28 0.04 0.0
0.29 0.04 0.0
0.3 0.04 0.0
0.31 0.04 0.0
0.32 0.04 0.0
0.33 0.04 0.0
0.34 0.04 0.0
0.35000000000000003 0.04 0.0
0.36 0.04 0.0
0.37 0.04 0.0
0.38 0.04 0.0
0.39 0.04 0.0
0.4 0.04 0.0
0.41000000000000003 0.04 0.0
0.42 0.04 0.0
0.43 0.04 0.0
0.44 0.04 0.0
0.45 0.04 0.0
0.46 0.04 0.0
0.47000000000000003 0.04 0.0
0.48 0.04 0.0
0.49 0.04 0.0
0.5 0.04 0.0
0.51 0.04 0.0
0.52 0.04 0.0
0.53 0.04 0.0
0.54 0.04 0.0
0.55 0.04 0.0
0.56 0.04 0.0
0.5700000000000001 0.04 0.0
0.58 0.04 0.0
0.59 0.04 0.0
0.6 0.04 0.0
0.61 0.04 0.0
0.62 0.04 0.0
0.63 0.04 0.0
0.64 0.04 0.0
0.65 0.04 0.0
0.66 0.04 0.0
0.67 0.04 0.0
0.68 0.04 0.0
0.6900000000000001 0.04 0.0
0.7000000000000001 0.04 0.0
0.71 0.04 0.0
0.72 0.04 0.0
0.73 0.04 0.0
0.74 0.04 0.0
0.75 0.04 0.0
0.76 0.04 0.0
0.77 0.04 0.0
0.78 0.04 0.0
0.79 0.04 0.0
0.8 0.04 0.0
0.81 0.04 0.0
0.8200000000000001 0.04 0.0
0.8300000000000001 0.04 0.0
0.84 0.04 0.0
0.85 0.04 0.0
0.86 0.04 0.0
0.87 0.04 0.0
0.88 0.04 0.0
0.89 0.04 0.0
0.9 0.04 0.0
0.91 0.04 0.0
0.92 0.04 0.0
0.93 0.04 0.0
0.9400000000000001 0.04 0.0
0.9500000000000001 0.04 0.0
0.96 0.04 0.0
0.97 0.04 0.0
0.98 0.04 0.0
0.99 0.04 0.0
1.0 0.04 0.0
0.0 0.05 0.0
0.01 0.05 0.0
0.02 0.05 0.0
0.03 0.05 0.0
0.04 0.05 0.0
0.05 0.05 0.0
0.06 0.05 0.0
0.07 0.05 0.0
0.08 0.05 0.0
0.09 0.05 0.0
0.1 0.05 0.0
0.11 0.05 0.0
0.12 0.05 0.0
0.13 0.05 0.0
0.14 0.05 0.0
0.15 0.05 0.0
0.16 0.05 0.0
0.17 0.05 0.0
0.18 0.05 0.0
0.19 0.05 0.0
0.2 0.05 0.0
0.21 0.05 0.0
0.22 0.05 0.0
0.23 0.05 0.0
0.24 0.05 0.0
0.25 0.05 0.0
0.26 0.05 0.0
0.27 0.05 0.0
0.28 0.05 0.0
0.29 0.05 0.0
0.3 0.05 0.0
0.31 0.05 0.0
0.32 0.05 0.0
0.33 0.05 0.0
0.34 0.05 0.0
0.35000000000000003 0.05 0.0
0.36 0.05 0.0
0.37 0.05 0.0
0.38 0.05 0.0
0.39 0.05 0.0
0.4 0.05 0.0
0.41000000000000003 0.05 0.0
0.42 0.05 0.0
0.43 0.05 0.0
0.44 0.05 0.0
0.45 0.05 0.0
0.46 0.05 0.0
0.47000000000000003 0.05 0.0
0.48 0.05 0.0
0.49 0.05 0.0
0.5 0.05 0.0
0.51 0.05 0.0
0.52 0.05 0.0
0.53 0.05 0.0
0.54 0.05 0.0
0.55 0.05 0.0
0.56 0.05 0.0
0.5700000000000001 0.05 0.0
0.58 0.05 0.0
0.59 0.05 0.0
0.6 0.05 0.0
0.61 0.05 0.0
0.62 0.05 0.0
0.63 0.05 0.0
0.64 0.05 0.0
0.65 0.05 0.0
0.66 0.05 0.0
0.67 0.05 0.0
0.68 0.05 0.0
0.6900000000000001 0.05 0.0
0.7000000000000001 0.05 0.0
0.71 0.05 0.0
0.72 0.05 0.0
0.73 0.05 0.0
0.74 0.05 0.0
0.75 0.05 0.0
0.76 0.05 0.0
0.77 0.05 0.0
0.78 0.05 0.0
0.79 0.05 0.0
0.8 0.05 0.0
0.81 0.05 0.0
0.8200000000000001 0.05 0.0
0.8300000000000001 0.05 0.0
0.84 0.05 0.0
0.85 0.05 0.0
0.86 0.05 0.0
0.87 0.05 0.0
0.88 0.05 0.0
0.89 0.05 0.0
0.9 0.05 0.0
0.91 0.05 0.0
0.92 0.05 0.0
0.93 0.05 0.0
0.9400000000000001 0.05 0.0
0.9500000000000001 0.05 0.0
0.96 0.05 0.0
0.97 0.05 0.0
0.98 0.05 0.0
0.99 0.05 0.0
1.0 0.05 0.0
0.0 0.06 0.0
0.01 0.06 0.0
0.02 0.06 0.0
0.03 0.06 0.0
0.04 0.06 0.0
0.05 0.06 0.0
0.06 0.06 0.0
0.07 0.06 0.0
0.08 0.06 0.0
0.09 0.06 0.0
0.1 0.06 0.0
0.11 0.06 0.0
0.12 0.06 0.0
0.13 0.06 0.0
0.14 0.06 0.0
0.15 0.06 0.0
0.16 0.06 0.0
0.17 0.06 0.0
0.18 0.06 0.0
0.19 0.06 0.0
0.2 0.06 0.0
0.21 0.06 0.0
0.22 0.06 0.0
0.23 0.06 0.0
0.24 0.06 0.0
0.25 0.06 0.0
0.26 0.06 0.0
0.27 0.06 0.0
0.28 0.06 0.0
0.29 0.06 0.0
0.3 0.06 0.0
0.31 0.06 0.0
0.32 0.06 0.0
0.33 0.06 0.0
0.34 0.06 0.0
0.35000000000000003 0.06 0.0
0.36 0.06 0.0
0.37 0.06 0.0
0.38 0.06 0.0
0.39 0.06 0.0
0.4 0.06 0.0
0.41000000000000003 0.06 0.0
0.42 0.06 0.0
0.43 0.06 0.0
0.44 0.06 0.0
0.45 0.06 0.0
0.46 0.06 0.0
[...]
POINT_DATA  10201
FIELD  FlowField  5
Density    1 10201  double
1.0664707635001314
1.0802680924010863
1.1101310728990494
1.1492265970472326
1.2041508108642511
1.2776870380415368
1.3704553064437395
1.4807561182922973
1.6048194112205216
1.7375193296542308
1.8732335333541892
2.006561178158205
2.132773505756653
2.2480025481458377
2.3492260586436435
2.43415360871437
2.5010840127563867
2.5487498894770826
2.576191841588302
2.5826873423182635
2.5677318126878133
2.5310575974575675
2.472675483956704
2.392953103162139
2.2927570180005836
2.1736595466221456
2.0381926746382075
1.8901267143684872
1.7347196972948415
1.5788070618623946
1.4305218106909696
1.2984240301742056
1.1899398402021761
1.1093665911403519
1.056317121558981
1.0258433863821663
1.0106489591858723
1.0040019708126255
1.0013911683898649
1.0004509696007928
1.0001368208603911
1.0000389088521013
1.0000103792688186
1.0000025989837984
1.000000611427996
1.0000001353081525
1.0000000282124977
1.0000000055536693
1.0000000010346546
1.0000000001829366
1.0000000000307918
1.0000000000049498
1.000000000000762
1.000000000000112
1.0000000000000155
1.0000000000000022
1.0
1.0
1.0
1.0
1.0
1.0
1.0
1.0
1.0
1.0
1.0
1.0
1.0
1.0
1.0
1.0
1.0
1.0
1.0
1.0
1.0
1.0
1.0
1.0
1.0
1.0
1.0
1.0
1.0
1.0
1.0
1.0
1.0
1.0
1.0
1.0
1.0
1.0
1.0
1.0
1.0
1.0
1.0
1.0
1.0
1.1539216897977214
1.1775300306900023
1.2263819678609842
1.2846184420314362
1.359274628310806
1.450695664761028
1.556718375802757
1.6735029913457307
1.7962878816772556
1.9201643701654874
2.0406814579341166
2.1541968632326096
2.257996127303219
2.3502324144941364
2.4297471348801123
2.4958523412424665
2.5481406920906235
2.5863240060177795
2.610107227363864
2.6191199023958944
2.612900582084511
2.590914802477247
2.5525781017280638
2.49730180362345
2.4246036414817698
2.3342766979832272
2.226615379547999
2.1027137335487964
1.9648208527308157
1.8166941397401541
1.6638271732833156
1.5133644468887808
1.373492600935138
1.2521799286160242
1.1554676999449005
1.0859263936852694
1.0418665020699291
1.0178332330051723
1.0066891149152113
1.002257467485798
1.000700457632702
1.0002022350841806
1.0000546036110158
1.000013816044998
1.0000032800836993
1.0000007315869897
1.0000001535322838
1.0000000303764143
1.0000000056795255
1.0000000010063204
1.0000000001694977
1.0000000000272302
1.0000000000041869
1.000000000000618
1.0000000000000875
1.0000000000000118
1.000000000000001
1.0
1.0
1.0
1.0
1.0
1.0
1.0
1.0
1.0
1.0
1.0
1.0
1.0
1.0
1.0
1.0
1.0
1.0
1.0
1.0
1.0
1.0
1.0
1.0
1.0
1.0
1.0
1.0
1.0
1.0
1.0
1.0
1.0
1.0
1.0
1.0
1.0
1.0
1.0
1.0
1.0
1.0
1.0
1.0
1.4394679234250412
1.4796119504372287
1.5610057282839755
1.6503845044844265
1.7527063866110368
1.8646005115523034
1.9805600928771194
2.0949883724202887
2.2032579895543565
2.3021703522959385
2.3899909829116552
2.4662323989826835
2.5313294660870556
2.5862911031143203
2.6323794055917795
2.6708420905363077
2.702714621904925
2.728703237584021
2.7491217075423644
2.7638666313104996
2.772431058922444
2.7739359897561875
2.7671325979320684
2.750410316655871
2.7218405116239466
2.679230488056958
2.6202231633665685
2.5424788223972774
2.4439705937685337
2.3234321959632025
2.1809829417201883
2.01889989281894
1.8423866435410388
1.6600168376836901
1.48339084636425
1.3255050067600456
1.1976282522320774
1.1057931109993273
1.0488554798180638
1.0192375683416555
1.006524389508981
1.0019659680809432
1.000542528545367
1.0001392186440086
1.000033415270798
1.0000075210085095
1.000001590308453
1.0000003165280225
1.0000000594409426
1.000000010560976
1.000000001780885
1.0000000002860074
1.0000000000439035
1.0000000000064655
1.0000000000009164
1.0000000000001252
1.0000000000000164
1.000000000000002
1.0000000000000002
1.0
1.0
1.0
1.0
1.0
1.0
1.0
1.0
1.0
1.0
1.0
1.0
1.0
1.0
1.0
1.0
1.0
1.0
1.0
1.0
1.0
1.0
1.0
1.0
1.0
1.0
1.0
1.0
1.0
1.0
1.0
1.0
1.0
1.0
1.0
1.0
1.0
1.0
1.0
1.0
1.0
1.0
1.9122688339122569
1.9544779171542084
2.041767154329888
2.134791089596888
2.231877716518455
2.3288341667367893
2.4208800666082806
2.504289525095266
2.576952181603559
2.6382919977323582
2.6889259626874167
2.7302582747925217
2.76410135799808
2.792361383105571
2.8168279750324836
2.8390256249884285
2.8600639723865573
2.880585835038546
2.9007920334623725
2.92046167004425
2.9389913448091747
2.955437807042203
2.9685361900337
2.9767148311335014
2.9780814035434875
2.9703798462229027
2.9509679104025732
2.916814781817851
2.86454389491641
2.790566006325713
2.6913692226797603
2.5640543800062385
2.4071966120205173
2.2220620056465656
2.0140224114672653
1.79363502422034
1.5765132040039713
1.3811137306493955
1.22397549941958
1.1138999133454157
1.0487972980565297
1.0173815811076712
1.0052379687115605
1.001395519028548
1.0003409463757436
1.000077592140005
1.0000165425985592
1.0000033136120188
1.000000625173522
1.0000001114064512
1.0000000188109301
1.0000000030201486
1.0000000004627982
1.0000000000679468
1.0000000000095937
1.0000000000013072
1.0000000000001723
1.0000000000000218
1.0000000000000024
1.0000000000000002
1.0
1.0
1.0
1.0
1.0
1.0
1.0
1.0
1.0
1.0
1.0
1.0
1.0
1.0
1.0
1.0
1.0
1.0
1.0
1.0
1.0
1.0
1.0
1.0
1.0
1.0
1.0
1.0
1.0
1.0
1.0
1.0
1.0
1.0
1.0
1.0
1.0
1.0
1.0
1.0
1.0
2.458044680005621
2.48377510086932
2.540115485036671
2.6006769214510634
2.658431130767285
2.710607669873093
2.7550796337633137
2.7907554869935476
2.8176793058136322
2.836808679837908
2.849698448373587
2.858200996592056
2.8642230106046385
2.8695414155873635
2.875741876098567
2.8841569942028022
2.895705029116577
2.91086108866806
2.9297181748142913
2.952004942767541
2.9771134570532105
3.0041301052456877
3.0319015674317717
3.059071771903762
3.0840284389159818
3.104845766985078
3.1192410273917686
3.1245207313027894
3.117521110582825
3.0945571130842504
3.0514078398507247
2.983391522142954
2.885627388197925
2.753630412570138
2.584408321082793
2.3781766390235743
2.140568918933575
1.884573108226489
1.6306859548011843
1.4037212802480479
1.2255743517025615
1.106501491894012
1.0411931546987823
1.0129238956991842
1.003400071626591
1.0007955604359062
1.0001717547975009
1.0000346656964205
1.0000065740510344
1.0000011752995683
1.000000198737324
1.0000000318999493
1.0000000048793447
1.0000000007140615
1.0000000001003801
1.000000000013607
1.0000000000017844
1.0000000000002263
1.0000000000000275
1.000000000000003
1.0000000000000002
1.0
1.0
1.0
1.0
1.0
1.0
1.0
1.0
1.0
1.0
1.0
1.0
1.0
1.0
1.0
1.0
1.0
1.0
1.0
1.0
1.0
1.0
1.0
1.0
1.0
1.0
1.0
1.0
1.0
1.0
1.0
1.0
1.0
1.0
1.0
1.0
1.0
1.0
1.0
1.0
2.9413043947494764
2.9430583073304954
2.949317392780043
2.956272263723951
2.958534152585165
2.9554594672552086
2.947148520248361
2.934162137090474
2.917489528660891
2.898439016468331
2.8785053729059675
2.859236793142296
2.842118403778424
2.8284804934144794
2.8195358645462214
2.8163394828951667
2.819589000652172
2.8296117114333006
2.8464342968340843
2.8697820418663853
2.8990772619724736
2.9334536569225205
2.9718683485953097
3.0131583309273666
3.055966606710865
3.098696138877648
3.1394775527591143
3.176121200163461
3.206051565347915
3.2262248269371203
3.2330322698806233
3.2221997390685786
3.1887112824982657
3.1268195058253063
3.030271410156378
2.892974293658047
2.7103966205041155
2.4819333203563883
2.2141404969544185
1.9237047005972974
1.63763045250046
1.3880866904541682
1.2012705450437158
1.0855820477254172
1.0288760175825575
1.0077575963573158
1.0017617462565283
1.0003616390626084
1.0000690850429597
1.0000123985155078
1.0000021000449402
1.0000003370212136
1.0000000514526963
1.0000000075041597
1.000000001049953
1.0000000001415095
1.0000000000184417
1.0000000000023315
1.0000000000002869
1.0000000000000342
1.0000000000000036
1.0000000000000004
1.0
1.0
1.0
1.0
1.0
1.0
1.0
1.0
1.0
1.0
1.0
1.0
1.0
1.0
1.0
1.0
1.0
1.0
1.0
1.0
1.0
1.0
1.0
1.0
1.0
1.0
1.0
1.0
1.0
1.0
1.0
1.0
1.0
1.0
1.0
1.0
1.0
1.0
1.0
3.2913762162742852
3.2711870121395012
3.2271483291765612
3.177086171302755
3.1232535566473456
3.0675073759024922
3.0114046007546067
2.9561564923544092
2.9028328484847177
2.852455492518726
2.8060355800816246
2.7645622145476914
2.7289661700185324
2.7000858511367922
2.678747748696849
2.665728714519781
2.6615450990022618
2.6664398635548325
2.680440150545529
2.7033326126369346
2.734627798304455
2.773552335495695
2.8191677327916422
2.8704521201157904
2.9262396843909073
2.9851769871788223
3.045703260151628
3.106019252073806
3.1640412534142968
3.2173398255577386
3.2630598364110766
3.2978160767984503
3.3175601071297516
3.317423226955347
3.2915662361053797
3.233117152927401
3.134370399199845
2.987582648445253
2.786838727827906
2.5313692634237754
2.230158557275823
1.9059525580722898
1.5945682937462209
1.33578655813867
1.1565719567349024
1.0576641484982279
1.0163286534731513
1.0036816520093628
1.0007225071003407
1.000130694116708
1.0000221928587374
1.000003561537618
1.0000005426841811
1.00000007886416
1.0000000109792315
1.0000000014706538
1.0000000001903135
1.0000000000238818
1.0000000000029154
1.0000000000003468
1.00000000000004
1.0000000000000044
1.0000000000000004
1.0
1.0
1.0
1.0
1.0
1.0
1.0
1.0
1.0
1.0
1.0
1.0
1.0
1.0
1.0
1.0
1.0
1.0
1.0
1.0
1.0
1.0
1.0
1.0
1.0
1.0
1.0
1.0
1.0
1.0
1.0
1.0
1.0
1.0
1.0
1.0
1.0
1.0
3.5011294016374155
3.4633525289349834
3.376551297803685
3.276006685335036
3.1731161994563704
3.072297761195719
2.9762450939221505
2.8863797282216406
2.8035009102706003
2.7281297384757046
2.6606895640546036
2.601581661716352
2.551202906947931
2.509949818664972
2.4782828932293186
2.456702492724926
2.4455830213491137
2.4451343304531705
2.455431731463638
2.4763750489024425
2.5076281436930192
2.548580347030173
2.59841630843267
2.6562250636308553
2.7209955439669278
2.791567393113021
2.866611039446743
2.9446048542169887
3.0238018823155794
3.1021892157966664
3.177439943028835
3.2468513009016213
3.307256639758126
3.354896122456595
3.3852358635115865
3.392739184641622
3.3706267045466807
3.3107356444217766
3.203731569134434
3.0401796076754666
2.8132015472170595
2.5232556503525045
2.184539099868684
1.8295022986717635
1.5050484420621053
1.256148888462283
1.1029792545981776
1.0313363531012032
1.0072054865006503
1.0013656742320964
1.000234249187026
1.0000376407608376
1.0000057251153864
1.0000008288572524
1.000000114777226
1.0000000152732411
1.0000000019615871
1.00000000024413
1.0000000000295473
1.000000000003488
1.0000000000004023
1.0000000000000453
1.0000000000000044
1.0000000000000004
1.0
1.0
1.0
1.0
1.0
1.0
1.0
1.0
1.0
1.0
1.0
1.0
1.0
1.0
1.0
1.0
1.0
1.0
1.0
1.0
1.0
1.0
1.0
1.0
1.0
1.0
1.0
1.0
1.0
1.0
1.0
1.0
1.0
1.0
1.0
1.0
1.0
3.595314456261403
3.542571590875001
3.4197322617249624
3.277200336389412
3.133871133885001
2.9961450435714054
2.867674233322936
2.74999425238658
2.6435727465094474
2.548412696245357
2.464370018749352
2.3913029916971453
2.3291309738299883
2.2778604890442726
2.237609234078333
2.2085881535852367
2.191023893140976
2.185105196850635
2.190964223000636
2.2086317650283913
2.237966590636163
2.2785889752454356
2.329867742508289
2.391010984838167
2.4611471486230165
2.539305578959973
2.6243788754593065
2.715094158478628
2.8099766746304375
2.9073113220927564
3.005109017554498
3.101077180133237
3.1925842832430886
3.2766009296698186
3.3495972528826194
3.4073757624600884
3.4448232721563867
3.455585091901727
3.4317148481408264
3.3634649780850876
3.2396138358953523
3.0491212428704495
2.785176566098692
2.4522113974199176
2.074261819652201
1.6979884775095218
1.381315007778313
1.166215914603029
1.0546354436610785
1.0130994878680957
1.0024339137012175
1.0003969834831832
1.0000603948894269
1.0000087116146457
1.0000011995549611
1.0000001584994933
1.0000000201919803
1.0000000024908235
1.000000000298661
1.0000000000349236
1.0000000000039935
1.0000000000004472
1.0000000000000484
1.0000000000000049
1.0000000000000004
1.0
1.0
1.0
1.0
1.0
1.0
1.0
1.0
1.0
1.0
1.0
1.0
1.0
1.0
1.0
1.0
1.0
1.0
1.0
1.0
1.0
1.0
1.0
1.0
1.0
1.0
1.0
1.0
1.0
1.0
1.0
1.0
1.0
1.0
1.0
1.0
3.6063455009177177
3.538857657656442
3.382901925256262
3.2046096721384605
3.0279700556958646
2.8603176922631093
2.7058730825542416
2.5661714687270365
2.441330362356596
2.3308557057392383
2.2340767923280556
2.1503576034156966
2.079185592590699
2.0202040676677244
1.9732097192324365
1.9381280310590454
1.9149923014959969
1.9039167744119363
1.905053319848747
1.9185352498573205
1.9444078965523257
1.9825496424767706
2.032598566828407
2.093953358491479
2.1658829216635955
2.247608217170775
2.338276908651851
2.436907800782805
2.542334959876028
2.6531503480332628
2.7676590604930964
2.8838547226370332
2.9994111635393796
3.111676088074063
3.2176476939419687
3.313911459363836
3.396509307650362
3.4607113243210885
3.5006679381938444
3.5089514124478316
3.4760769961478224
3.390277634700466
3.238198590083468
3.0077579910788144
2.6945873725722627
2.3121629975024316
1.9009555360602357
1.524924002357014
1.2458347319736018
1.086945922027934
1.0220017260467247
1.0040747771253797
1.0006348015303062
1.0000915260698573
1.0000125326032738
1.0000016435208878
1.0000002075540844
1.000000025360139
1.00000000301041
1.0000000003484146
1.000000000039434
1.0000000000043756
1.0000000000004765
1.0000000000000504
1.0000000000000049
1.0000000000000004
1.0
1.0
1.0
1.0
1.0
1.0
1.0
1.0
1.0
1.0
1.0
1.0
1.0
1.0
1.0
1.0
1.0
1.0
1.0
1.0
1.0
1.0
1.0
1.0
1.0
1.0
1.0
1.0
1.0
1.0
1.0
1.0
1.0
1.0
1.0
3.562655649228404
3.4790380540221078
3.2895505214425116
3.078642157120767
2.873562354883578
2.6814670837940966
2.5065136558248464
2.3499430498121248
2.2114014477746036
2.0898656660363573
1.9841488641068408
1.8931471811177008
1.8159408378244128
1.7518206733525847
1.7002743931549222
1.6609609580873617
1.6336937928979687
1.6184300506878275
1.615245168803378
1.6242924691824423
1.6457432000042305
1.6797007255922112
1.7261087037245801
1.784672636753497
1.8548722584370316
1.936097612239461
2.027752774918956
2.1292119201203166
2.2397127040493308
2.3582582078011143
2.483536516277945
2.6138729824922518
2.7472167615069143
2.8811525474825257
3.012922278178525
3.1394395463233518
3.257272857319391
3.3625648390466543
3.4508475020464835
3.5167134573456584
3.5533191390180043
3.5517508994196008
3.5004266378346833
3.3850318628655502
3.190156901885488
2.9045190139601083
2.531228422195488
2.1010872732746186
1.6776349253323248
1.3376360630728859
1.1274758238721139
1.0341154855586732
1.0063862812556275
1.0009558092999318
1.0001308030221958
1.0000170259781642
1.0000021300969428
1.0000002575999445
1.0000000302496719
1.0000000034624743
1.0000000003875624
1.0000000000425364
1.0000000000045879
1.0000000000004865
1.0000000000000502
1.0000000000000049
1.0000000000000004
1.0
1.0
1.0
1.0
1.0
1.0
1.0
1.0
1.0
1.0
1.0
1.0
1.0
1.0
1.0
1.0
1.0
1.0
1.0
1.0
1.0
1.0
1.0
1.0
1.0
1.0
1.0
1.0
1.0
1.0
1.0
1.0
1.0
1.0
3.4853481448969426
3.383458322301416
3.1581622547898585
2.915664123799318
2.685333442832089
2.473227881915797
2.282663235313722
2.1141368812369095
1.966580858141553
1.8383352308055063
1.7276647152418196
1.6329997423372
1.55302483323901
1.48668883786209
1.4331813011563392
1.3919036599754344
1.3624451345678434
1.3445622869244471
1.3381644803626203
1.3433041285264702
1.3601502131833154
1.388934413577231
1.429862052622709
1.482999856519942
1.5481862922139333
1.625053278717259
1.713195030984932
1.8123047108994332
1.9220920752812798
2.0420977533683464
2.171552727670071
2.30927915321481
2.4536394388887985
2.6025303925445398
2.7534104259108014
2.903346454135014
3.0490664170027673
3.1869931916616356
3.3132222169383994
3.423394783445621
3.5124134466103416
3.5739516082583314
3.599743785676533
3.5787470405144015
3.496528970662122
3.335862775282616
3.0805129594877867
2.724675591194065
2.2883621942954195
1.8299971220335234
1.4357334665916555
1.1739698445674729
1.0490045601406273
1.0093474028894007
1.001352410441736
1.000176026776773
1.0000218202862605
1.000002609753006
1.0000003028971867
1.000000034260035
1.000000003789427
1.000000000411041
1.0000000000438267
1.0000000000046014
1.0000000000004756
1.0000000000000482
1.0000000000000044
1.0000000000000004
1.0
1.0
1.0
1.0
1.0
1.0
1.0
1.0
1.0
1.0
1.0
1.0
1.0
1.0
1.0
1.0
1.0
1.0
1.0
1.0
1.0
1.0
1.0
1.0
1.0
1.0
1.0
1.0
1.0
1.0
1.0
1.0
1.0
3.3885058335088596
3.265976334728215
3.0020123334541315
2.7282429621094026
2.475286322075848
2.2472968435139524
2.0459194681955077
1.870386317947272
1.7186121274943702
1.5881533309627114
1.4766749101890695
1.382138401535864
1.3028476409737728
1.2374296456416034
1.1847941679147844
1.1440932945415452
1.1146874405971536
1.0961199920050269
1.088102086590246
1.09050704995269
1.103373127928686
1.126901899636937
1.1614220926997794
1.2072938233382664
1.2647734475185555
1.3339047138171805
1.4145489293105782
1.5065933788027779
1.6101202452070082
1.7252672696327866
1.8519463798473632
1.9896595498925298
2.13739317836058
2.2935731142746865
2.456059187827143
2.6221717635172976
2.788755147240464
2.95226924419979
3.1088779622715825
3.254490795016765
3.38470335148601
3.4945719675097546
3.578156944782834
3.6277873449671945
3.633074758437367
3.5799172508276156
3.4502756725283033
3.224610763073103
2.8900265291622755
2.456234185256922
1.9739266767855383
1.5337103232259723
1.2231041426366982
1.0655973924327249
1.01276779193923
1.0017951520206334
1.0002227644242947
1.0000263571111583
1.0000030209143793
1.0000003373228905
1.0000000368366806
1.0000000039458932
1.000000000415619
1.0000000000431308
1.0000000000044162
1.0000000000004465
1.0000000000000444
1.0000000000000042
1.0000000000000004
1.0
1.0
1.0
1.0
1.0
1.0
1.0
1.0
1.0
1.0
1.0
1.0
1.0
1.0
1.0
1.0
1.0
1.0
1.0
1.0
1.0
1.0
1.0
1.0
1.0
1.0
1.0
1.0
1.0
1.0
1.0
1.0
3.280640876089002
3.1352106997281455
2.8300167623232255
2.525764550905108
2.2532826751781805
2.013857976563469
1.8066505865441354
1.6291315238380752
1.4779334931041033
1.3497109263240914
1.2414954506521436
1.150788157997681
1.075538155690646
1.014081827419222
0.9650776240412661
0.9274496004089393
0.9003435734920615
0.8830971974237599
0.8752234756984483
0.8764060401054372
0.8865046186931281
0.9055698251779574
0.9338632007803629
0.9718436224780043
1.020072481141924
1.0790452744372079
1.1490659162431436
1.2302973299374664
1.3230041937146702
1.4277354280680217
1.5451136124273832
1.675456990862867
1.8185674867693913
1.9736372100013948
2.1391965383770186
2.3130904040519153
2.4925015318318953
2.6740285489566
2.8538079149515623
3.0276541746067234
3.191171590580776
3.3397689245722733
3.46850283409845
3.5716701814045972
3.64207732697671
3.6699677055372772
3.64175437572082
3.539176743180911
3.34059490969945
3.027716281960611
2.601267315710123
2.1033672955960405
1.6255794747948813
1.2710654828360335
1.0823581775794389
1.0162904336863476
1.0022324229953423
1.000264804435046
1.0000299854537824
1.0000033024724497
1.0000003557159873
1.000000037596519
1.0000000039090235
1.0000000004006306
1.0000000000405402
1.0000000000040554
1.0000000000004012
1.000000000000039
1.0000000000000038
1.0000000000000002
1.0
1.0
1.0
1.0
1.0
1.0
1.0
1.0
1.0
1.0
1.0
1.0
1.0
1.0
1.0
1.0
1.0
1.0
1.0
1.0
1.0
1.0
1.0
1.0
1.0
1.0
1.0
1.0
1.0
1.0
1.0
3.1661341662730873
2.9959383587554687
2.647943780236138
2.3152341181118508
2.027376885914942
1.7815539603740556
1.573697264285058
1.3991414716908745
1.2530744914531504
1.131200946501128
1.029925725688953
0.9463194542307556
0.8780160395816065
0.823103835309035
0.7800323493069727
0.7475393583253439
0.7245976751304481
0.7103794922222166
0.7042356469241801
0.7056872220892618
0.7144280072548759
0.7303382570407564
0.753511254168348
0.7842919778782983
0.8232879783384056
0.8712697046041078
0.928968272235562
0.9969733761873555
1.0758143812393866
1.1661930406822743
1.2691615653976944
1.385843572393318
1.516972367750617
1.6626809752877691
1.8224183717536273
1.9948695519779625
2.177902886937287
2.3685789217528708
2.563237064433032
2.757651914239681
2.947226233612131
3.1271676905370622
3.2925807447432063
3.438386283598736
3.558971730716628
3.647482493311807
3.6946981864349002
3.687570204206548
3.607908412080764
3.4327550934969837
3.1397912294255796
2.7223231001098487
2.2143039543095
1.7063545250650898
1.314111210375353
1.0975523871906923
1.019452816417841
1.002598714691016
1.0002954185250799
1.0000321125578955
1.0000034086898337
1.0000003551500392
1.0000000364214299
1.0000000036839582
1.000000000368127
1.0000000000363904
1.0000000000035623
1.0000000000003455