# vtk DataFile Version 3.0 
shock_diffraction_time_series_304_.vtk
ASCII
DATASET UNSTRUCTURED_GRID
POINTS         10201 double
0.0 0.0 0.0
0.01 0.0 0.0
0.02 0.0 0.0
0.03 0.0 0.0
0.04 0.0 0.0
0.05 0.0 0.0
0.06 0.0 0.0
0.07 0.0 0.0
0.08 0.0 0.0
0.09 0.0 0.0
0.1 0.0 0.0
0.11 0.0 0.0
0.12 0.0 0.0
0.13 0.0 0.0
0.14 0.0 0.0
0.15 0.0 0.0
0.16 0.0 0.0
0.17 0.0 0.0
0.18 0.0 0.0
0.19 0.0 0.0
0.2 0.0 0.0
0.21 0.0 0.0
0.22 0.0 0.0
0.23 0.0 0.0
0.24 0.0 0.0
0.25 0.0 0.0
0.26 0.0 0.0
0.27 0.0 0.0
0.28 0.0 0.0
0.29 0.0 0.0
0.3 0.0 0.0
0.31 0.0 0.0
0.32 0.0 0.0
0.33 0.0 0.0
0.34 0.0 0.0
0.35000000000000003 0.0 0.0
0.36 0.0 0.0
0.37 0.0 0.0
0.38 0.0 0.0
0.39 0.0 0.0
0.4 0.0 0.0
0.41000000000000003 0.0 0.0
0.42 0.0 0.0
0.43 0.0 0.0
0.44 0.0 0.0
0.45 0.0 0.0
0.46 0.0 0.0
0.47000000000000003 0.0 0.0
0.48 0.0 0.0
0.49 0.0 0.0
0.5 0.0 0.0
0.51 0.0 0.0
0.52 0.0 0.0
0.53 0.0 0.0
0.54 0.0 0.0
0.55 0.0 0.0
0.56 0.0 0.0
0.5700000000000001 0.0 0.0
0.58 0.0 0.0
0.59 0.0 0.0
0.6 0.0 0.0
0.61 0.0 0.0
0.62 0.0 0.0
0.63 0.0 0.0
0.64 0.0 0.0
0.65 0.0 0.0
0.66 0.0 0.0
0.67 0.0 0.0
0.68 0.0 0.0
0.6900000000000001 0.0 0.0
0.7000000000000001 0.0 0.0
0.71 0.0 0.0
0.72 0.0 0.0
0.73 0.0 0.0
0.74 0.0 0.0
0.75 0.0 0.0
0.76 0.0 0.0
0.77 0.0 0.0
0.78 0.0 0.0
0.79 0.0 0.0
0.8 0.0 0.0
0.81 0.0 0.0
0.8200000000000001 0.0 0.0
0.8300000000000001 0.0 0.0
0.84 0.0 0.0
0.85 0.0 0.0
0.86 0.0 0.0
0.87 0.0 0.0
0.88 0.0 0.0
0.89 0.0 0.0
0.9 0.0 0.0
0.91 0.0 0.0
0.92 0.0 0.0
0.93 0.0 0.0
0.9400000000000001 0.0 0.0
0.9500000000000001 0.0 0.0
0.96 0.0 0.0
0.97 0.0 0.0
0.98 0.0 0.0
0.99 0.0 0.0
1.0 0.0 0.0
0.0 0.01 0.0
0.01 0.01 0.0
0.02 0.01 0.0
0.03 0.01 0.0
0.04 0.01 0.0
0.05 0.01 0.0
0.06 0.01 0.0
0.07 0.01 0.0
0.08 0.01 0.0
0.09 0.01 0.0
0.1 0.01 0.0
0.11 0.01 0.0
0.12 0.01 0.0
0.13 0.01 0.0
0.14 0.01 0.0
0.15 0.01 0.0
0.16 0.01 0.0
0.17 0.01 0.0
0.18 0.01 0.0
0.19 0.01 0.0
0.2 0.01 0.0
0.21 0.01 0.0
0.22 0.01 0.0
0.23 0.01 0.0
0.24 0.01 0.0
0.25 0.01 0.0
0.26 0.01 0.0
0.27 0.01 0.0
0.28 0.01 0.0
0.29 0.01 0.0
0.3 0.01 0.0
0.31 0.01 0.0
0.32 0.01 0.0
0.33 0.01 0.0
0.34 0.01 0.0
0.35000000000000003 0.01 0.0
0.36 0.01 0.0
0.37 0.01 0.0
0.38 0.01 0.0
0.39 0.01 0.0
0.4 0.01 0.0
0.41000000000000003 0.01 0.0
0.42 0.01 0.0
0.43 0.01 0.0
0.44 0.01 0.0
0.45 0.01 0.0
0.46 0.01 0.0
0.47000000000000003 0.01 0.0
0.48 0.01 0.0
0.49 0.01 0.0
0.5 0.01 0.0
0.51 0.01 0.0
0.52 0.01 0.0
0.53 0.01 0.0
0.54 0.01 0.0
0.55 0.01 0.0
0.56 0.01 0.0
0.5700000000000001 0.01 0.0
0.58 0.01 0.0
0.59 0.01 0.0
0.6 0.01 0.0
0.61 0.01 0.0
0.62 0.01 0.0
0.63 0.01 0.0
0.64 0.01 0.0
0.65 0.01 0.0
0.66 0.01 0.0
0.67 0.01 0.0
0.68 0.01 0.0
0.6900000000000001 0.01 0.0
0.7000000000000001 0.01 0.0
0.71 0.01 0.0
0.72 0.01 0.0
0.73 0.01 0.0
0.74 0.01 0.0
0.75 0.01 0.0
0.76 0.01 0.0
0.77 0.01 0.0
0.78 0.01 0.0
0.79 0.01 0.0
0.8 0.01 0.0
0.81 0.01 0.0
0.8200000000000001 0.01 0.0
0.8300000000000001 0.01 0.0
0.84 0.01 0.0
0.85 0.01 0.0
0.86 0.01 0.0
0.87 0.01 0.0
0.88 0.01 0.0
0.89 0.01 0.0
0.9 0.01 0.0
0.91 0.01 0.0
0.92 0.01 0.0
0.93 0.01 0.0
0.9400000000000001 0.01 0.0
0.9500000000000001 0.01 0.0
0.96 0.01 0.0
0.97 0.01 0.0
0.98 0.01 0.0
0.99 0.01 0.0
1.0 0.01 0.0
0.0 0.02 0.0
0.01 0.02 0.0
0.02 0.02 0.0
0.03 0.02 0.0
0.04 0.02 0.0
0.05 0.02 0.0
0.06 0.02 0.0
0.07 0.02 0.0
0.08 0.02 0.0
0.09 0.02 0.0
0.1 0.02 0.0
0.11 0.02 0.0
0.12 0.02 0.0
0.13 0.02 0.0
0.14 0.02 0.0
0.15 0.02 0.0
0.16 0.02 0.0
0.17 0.02 0.0
0.18 0.02 0.0
0.19 0.02 0.0
0.2 0.02 0.0
0.21 0.02 0.0
0.22 0.02 0.0
0.23 0.02 0.0
0.24 0.02 0.0
0.25 0.02 0.0
0.26 0.02 0.0
0.27 0.02 0.0
0.28 0.02 0.0
0.29 0.02 0.0
0.3 0.02 0.0
0.31 0.02 0.0
0.32 0.02 0.0
0.33 0.02 0.0
0.34 0.02 0.0
0.35000000000000003 0.02 0.0
0.36 0.02 0.0
0.37 0.02 0.0
0.38 0.02 0.0
0.39 0.02 0.0
0.4 0.02 0.0
0.41000000000000003 0.02 0.0
0.42 0.02 0.0
0.43 0.02 0.0
0.44 0.02 0.0
0.45 0.02 0.0
0.46 0.02 0.0
0.47000000000000003 0.02 0.0
0.48 0.02 0.0
0.49 0.02 0.0
0.5 0.02 0.0
0.51 0.02 0.0
0.52 0.02 0.0
0.53 0.02 0.0
0.54 0.02 0.0
0.55 0.02 0.0
0.56 0.02 0.0
0.5700000000000001 0.02 0.0
0.58 0.02 0.0
0.59 0.02 0.0
0.6 0.02 0.0
0.61 0.02 0.0
0.62 0.02 0.0
0.63 0.02 0.0
0.64 0.02 0.0
0.65 0.02 0.0
0.66 0.02 0.0
0.67 0.02 0.0
0.68 0.02 0.0
0.6900000000000001 0.02 0.0
0.7000000000000001 0.02 0.0
0.71 0.02 0.0
0.72 0.02 0.0
0.73 0.02 0.0
0.74 0.02 0.0
0.75 0.02 0.0
0.76 0.02 0.0
0.77 0.02 0.0
0.78 0.02 0.0
0.79 0.02 0.0
0.8 0.02 0.0
0.81 0.02 0.0
0.8200000000000001 0.02 0.0
0.8300000000000001 0.02 0.0
0.84 0.02 0.0
0.85 0.02 0.0
0.86 0.02 0.0
0.87 0.02 0.0
0.88 0.02 0.0
0.89 0.02 0.0
0.9 0.02 0.0
0.91 0.02 0.0
0.92 0.02 0.0
0.93 0.02 0.0
0.9400000000000001 0.02 0.0
0.9500000000000001 0.02 0.0
0.96 0.02 0.0
0.97 0.02 0.0
0.98 0.02 0.0
0.99 0.02 0.0
1.0 0.02 0.0
0.0 0.03 0.0
0.01 0.03 0.0
0.02 0.03 0.0
0.03 0.03 0.0
0.04 0.03 0.0
0.05 0.03 0.0
0.06 0.03 0.0
0.07 0.03 0.0
0.08 0.03 0.0
0.09 0.03 0.0
0.1 0.03 0.0
0.11 0.03 0.0
0.12 0.03 0.0
0.13 0.03 0.0
0.14 0.03 0.0
0.15 0.03 0.0
0.16 0.03 0.0
0.17 0.03 0.0
0.18 0.03 0.0
0.19 0.03 0.0
0.2 0.03 0.0
0.21 0.03 0.0
0.22 0.03 0.0
0.23 0.03 0.0
0.24 0.03 0.0
0.25 0.03 0.0
0.26 0.03 0.0
0.27 0.03 0.0
0.28 0.03 0.0
0.29 0.03 0.0
0.3 0.03 0.0
0.31 0.03 0.0
0.32 0.03 0.0
0.33 0.03 0.0
0.34 0.03 0.0
0.35000000000000003 0.03 0.0
0.36 0.03 0.0
0.37 0.03 0.0
0.38 0.03 0.0
0.39 0.03 0.0
0.4 0.03 0.0
0.41000000000000003 0.03 0.0
0.42 0.03 0.0
0.43 0.03 0.0
0.44 0.03 0.0
0.45 0.03 0.0
0.46 0.03 0.0
0.47000000000000003 0.03 0.0
0.48 0.03 0.0
0.49 0.03 0.0
0.5 0.03 0.0
0.51 0.03 0.0
0.52 0.03 0.0
0.53 0.03 0.0
0.54 0.03 0.0
0.55 0.03 0.0
0.56 0.03 0.0
0.5700000000000001 0.03 0.0
0.58 0.03 0.0
0.59 0.03 0.0
0.6 0.03 0.0
0.61 0.03 0.0
0.62 0.03 0.0
0.63 0.03 0.0
0.64 0.03 0.0
0.65 0.03 0.0
0.66 0.03 0.0
0.67 0.03 0.0
0.68 0.03 0.0
0.6900000000000001 0.03 0.0
0.7000000000000001 0.03 0.0
0.71 0.03 0.0
0.72 0.03 0.0
0.73 0.03 0.0
0.74 0.03 0.0
0.75 0.03 0.0
0.76 0.03 0.0
0.77 0.03 0.0
0.78 0.03 0.0
0.79 0.03 0.0
0.8 0.03 0.0
0.81 0.03 0.0
0.8200000000000001 0.03 0.0
0.8300000000000001 0.03 0.0
0.84 0.03 0.0
0.85 0.03 0.0
0.86 0.03 0.0
0.87 0.03 0.0
0.88 0.03 0.0
0.89 0.03 0.0
0.9 0.03 0.0
0.91 0.03 0.0
0.92 0.03 0.0
0.93 0.03 0.0
0.9400000000000001 0.03 0.0
0.9500000000000001 0.03 0.0
0.96 0.03 0.0
0.97 0.03 0.0
0.98 0.03 0.0
0.99 0.03 0.0
1.0 0.03 0.0
0.0 0.04 0.0
0.01 0.04 0.0
0.02 0.04 0.0
0.03 0.04 0.0
0.04 0.04 0.0
0.05 0.04 0.0
0.06 0.04 0.0
0.07 0.04 0.0
0.08 0.04 0.0
0.09 0.04 0.0
0.1 0.04 0.0
0.11 0.04 0.0
0.12 0.04 0.0
0.13 0.04 0.0
0.14 0.04 0.0
0.15 0.04 0.0
0.16 0.04 0.0
0.17 0.04 0.0
0.18 0.04 0.0
0.19 0.04 0.0
0.2 0.04 0.0
0.21 0.04 0.0
0.22 0.04 0.0
0.23 0.04 0.0
0.24 0.04 0.0
0.25 0.04 0.0
0.26 0.04 0.0
0.27 0.04 0.0
0.28 0.04 0.0
0.29 0.04 0.0
0.3 0.04 0.0
0.31 0.04 0.0
0.32 0.04 0.0
0.33 0.04 0.0
0.34 0.04 0.0
0.35000000000000003 0.04 0.0
0.36 0.04 0.0
0.37 0.04 0.0
0.38 0.04 0.0
0.39 0.04 0.0
0.4 0.04 0.0
0.41000000000000003 0.04 0.0
0.42 0.04 0.0
0.43 0.04 0.0
0.44 0.04 0.0
0.45 0.04 0.0
0.46 0.04 0.0
0.47000000000000003 0.04 0.0
0.48 0.04 0.0
0.49 0.04 0.0
0.5 0.04 0.0
0.51 0.04 0.0
0.52 0.04 0.0
0.53 0.04 0.0
0.54 0.04 0.0
0.55 0.04 0.0
0.56 0.04 0.0
0.5700000000000001 0.04 0.0
0.58 0.04 0.0
0.59 0.04 0.0
0.6 0.04 0.0
0.61 0.04 0.0
0.62 0.04 0.0
0.63 0.04 0.0
0.64 0.04 0.0
0.65 0.04 0.0
0.66 0.04 0.0
0.67 0.04 0.0
0.68 0.04 0.0
0.6900000000000001 0.04 0.0
0.7000000000000001 0.04 0.0
0.71 0.04 0.0
0.72 0.04 0.0
0.73 0.04 0.0
0.74 0.04 0.0
0.75 0.04 0.0
0.76 0.04 0.0
0.77 0.04 0.0
0.78 0.04 0.0
0.79 0.04 0.0
0.8 0.04 0.0
0.81 0.04 0.0
0.8200000000000001 0.04 0.0
0.8300000000000001 0.04 0.0
0.84 0.04 0.0
0.85 0.04 0.0
0.86 0.04 0.0
0.87 0.04 0.0
0.88 0.04 0.0
0.89 0.04 0.0
0.9 0.04 0.0
0.91 0.04 0.0
0.92 0.04 0.0
0.93 0.04 0.0
0.9400000000000001 0.04 0.0
0.9500000000000001 0.04 0.0
0.96 0.04 0.0
0.97 0.04 0.0
0.98 0.04 0.0
0.99 0.04 0.0
1.0 0.04 0.0
0.0 0.05 0.0
0.01 0.05 0.0
0.02 0.05 0.0
0.03 0.05 0.0
0.04 0.05 0.0
0.05 0.05 0.0
0.06 0.05 0.0
0.07 0.05 0.0
0.08 0.05 0.0
0.09 0.05 0.0
0.1 0.05 0.0
0.11 0.05 0.0
0.12 0.05 0.0
0.13 0.05 0.0
0.14 0.05 0.0
0.15 0.05 0.0
0.16 0.05 0.0
0.17 0.05 0.0
0.18 0.05 0.0
0.19 0.05 0.0
0.2 0.05 0.0
0.21 0.05 0.0
0.22 0.05 0.0
0.23 0.05 0.0
0.24 0.05 0.0
0.25 0.05 0.0
0.26 0.05 0.0
0.27 0.05 0.0
0.28 0.05 0.0
0.29 0.05 0.0
0.3 0.05 0.0
0.31 0.05 0.0
0.32 0.05 0.0
0.33 0.05 0.0
0.34 0.05 0.0
0.35000000000000003 0.05 0.0
0.36 0.05 0.0
0.37 0.05 0.0
0.38 0.05 0.0
0.39 0.05 0.0
0.4 0.05 0.0
0.41000000000000003 0.05 0.0
0.42 0.05 0.0
0.43 0.05 0.0
0.44 0.05 0.0
0.45 0.05 0.0
0.46 0.05 0.0
0.47000000000000003 0.05 0.0
0.48 0.05 0.0
0.49 0.05 0.0
0.5 0.05 0.0
0.51 0.05 0.0
0.52 0.05 0.0
0.53 0.05 0.0
0.54 0.05 0.0
0.55 0.05 0.0
0.56 0.05 0.0
0.5700000000000001 0.05 0.0
0.58 0.05 0.0
0.59 0.05 0.0
0.6 0.05 0.0
0.61 0.05 0.0
0.62 0.05 0.0
0.63 0.05 0.0
0.64 0.05 0.0
0.65 0.05 0.0
0.66 0.05 0.0
0.67 0.05 0.0
0.68 0.05 0.0
0.6900000000000001 0.05 0.0
0.7000000000000001 0.05 0.0
0.71 0.05 0.0
0.72 0.05 0.0
0.73 0.05 0.0
0.74 0.05 0.0
0.75 0.05 0.0
0.76 0.05 0.0
0.77 0.05 0.0
0.78 0.05 0.0
0.79 0.05 0.0
0.8 0.05 0.0
0.81 0.05 0.0
0.8200000000000001 0.05 0.0
0.8300000000000001 0.05 0.0
0.84 0.05 0.0
0.85 0.05 0.0
0.86 0.05 0.0
0.87 0.05 0.0
0.88 0.05 0.0
0.89 0.05 0.0
0.9 0.05 0.0
0.91 0.05 0.0
0.92 0.05 0.0
0.93 0.05 0.0
0.9400000000000001 0.05 0.0
0.9500000000000001 0.05 0.0
0.96 0.05 0.0
0.97 0.05 0.0
0.98 0.05 0.0
0.99 0.05 0.0
1.0 0.05 0.0
0.0 0.06 0.0
0.01 0.06 0.0
0.02 0.06 0.0
0.03 0.06 0.0
0.04 0.06 0.0
0.05 0.06 0.0
0.06 0.06 0.0
0.07 0.06 0.0
0.08 0.06 0.0
0.09 0.06 0.0
0.1 0.06 0.0
0.11 0.06 0.0
0.12 0.06 0.0
0.13 0.06 0.0
0.14 0.06 0.0
0.15 0.06 0.0
0.16 0.06 0.0
0.17 0.06 0.0
0.18 0.06 0.0
0.19 0.06 0.0
0.2 0.06 0.0
0.21 0.06 0.0
0.22 0.06 0.0
0.23 0.06 0.0
0.24 0.06 0.0
0.25 0.06 0.0
0.26 0.06 0.0
0.27 0.06 0.0
0.28 0.06 0.0
0.29 0.06 0.0
0.3 0.06 0.0
0.31 0.06 0.0
0.32 0.06 0.0
0.33 0.06 0.0
0.34 0.06 0.0
0.35000000000000003 0.06 0.0
0.36 0.06 0.0
0.37 0.06 0.0
0.38 0.06 0.0
0.39 0.06 0.0
0.4 0.06 0.0
0.41000000000000003 0.06 0.0
0.42 0.06 0.0
0.43 0.06 0.0
0.44 0.06 0.0
0.45 0.06 0.0
0.46 0.06 0.0
[...]
POINT_DATA  10201
FIELD  FlowField  5
Density    1 10201  double
1.0000353608370467
1.0000432283907525
1.0000643402632643
1.0000994280060107
1.0001564410265893
1.000246492213051
1.0003839094164233
1.0005853552565498
1.0008673136209056
1.0012415659398972
1.0017089192520978
1.0022525634578852
1.0028337178271427
1.0033927092908264
1.0038572578896396
1.004157089683814
1.0042410943291529
1.0040912920096097
1.0037284034927558
1.003206858095375
1.002601080350645
1.001987830650958
1.001430262782343
1.0009681814352223
1.0006162128389082
1.0003685481724003
1.0002070242969
1.0001091677085423
1.000054012892813
1.0000250620461637
1.0000109003972981
1.000004442008053
1.000001695337208
1.0000006058138502
1.0000002026512935
1.0000000634568944
1.0000000186042042
1.000000005109067
1.000000001315218
1.0000000003177294
1.0000000000721374
1.000000000015421
1.0000000000031104
1.0000000000005933
1.0000000000001075
1.0000000000000182
1.0000000000000027
1.0000000000000004
1.0
1.0
1.0
1.0
1.0
1.0
1.0
1.0
1.0
1.0
1.0
1.0
1.0
1.0
1.0
1.0
1.0
1.0
1.0
1.0
1.0
1.0
1.0
1.0
1.0
1.0
1.0
1.0
1.0
1.0
1.0
1.0
1.0
1.0
1.0
1.0
1.0
1.0
1.0
1.0
1.0
1.0
1.0
1.0
1.0
1.0
1.0
1.0
1.0
1.0
1.0
1.0
1.0
1.0001143457112982
1.0001407384210133
1.0002100247927
1.0003237233334177
1.0005092398431172
1.0008043741418022
1.001258544453823
1.001930379470605
1.0028794628543007
1.004150797102482
1.0057529065184903
1.0076347010742586
1.0096706640068285
1.0116649195033025
1.0133785470166203
1.0145751001983467
1.0150721488068821
1.0147837144036957
1.0137412693057595
1.0120877986906376
1.0100470765855416
1.00787612017191
1.0058127610743735
1.004032492171723
1.0026265042185245
1.0016049742324005
1.000919719699099
1.0004941162481058
1.000248826685939
1.0001174222094567
1.000051910132418
1.0000214904042601
1.0000083284449366
1.000003020387007
1.0000010247846833
1.0000003252572098
1.0000000965790548
1.000000026837702
1.0000000069837536
1.0000000017034911
1.0000000003900258
1.0000000000839702
1.0000000000170366
1.0000000000032654
1.0000000000005929
1.0000000000001024
1.0000000000000164
1.0000000000000022
1.0000000000000002
1.0
1.0
1.0
1.0
1.0
1.0
1.0
1.0
1.0
1.0
1.0
1.0
1.0
1.0
1.0
1.0
1.0
1.0
1.0
1.0
1.0
1.0
1.0
1.0
1.0
1.0
1.0
1.0
1.0
1.0
1.0
1.0
1.0
1.0
1.0
1.0
1.0
1.0
1.0
1.0
1.0
1.0
1.0
1.0
1.0
1.0
1.0
1.0
1.0
1.0
1.0
1.0
1.0006708020988901
1.0008322461455255
1.0012436756492977
1.0019051826460226
1.0029836833388204
1.004698188012282
1.007326261001537
1.0111781024363236
1.0165311956793068
1.0235303397093267
1.032082899790081
1.0417920276177277
1.051961743439413
1.0616839937893572
1.0699810767904685
1.075960247816412
1.0789480163940166
1.0785852274476286
1.074874782033508
1.0681814583123805
1.0591878220896906
1.0488093632278535
1.0380704742399773
1.0279501807778675
1.01922284139878
1.0123360027006116
1.0073698200257701
1.004097358350812
1.0021219446514846
1.0010251120841538
1.0004625435355137
1.0001950757760352
1.000076922308149
1.0000283594835977
1.0000097743050564
1.0000031489461971
1.0000009482911576
1.00000026700082
1.0000000703230927
1.0000000173407224
1.0000000040083115
1.0000000008699803
1.0000000001776779
1.0000000000342326
1.0000000000062403
1.0000000000010798
1.0000000000001776
1.0000000000000275
1.000000000000004
1.0000000000000004
1.0
1.0
1.0
1.0
1.0
1.0
1.0
1.0
1.0
1.0
1.0
1.0
1.0
1.0
1.0
1.0
1.0
1.0
1.0
1.0
1.0
1.0
1.0
1.0
1.0
1.0
1.0
1.0
1.0
1.0
1.0
1.0
1.0
1.0
1.0
1.0
1.0
1.0
1.0
1.0
1.0
1.0
1.0
1.0
1.0
1.0
1.0
1.0
1.0
1.0
1.0
1.0039549669356531
1.0049347964723112
1.0073319305822324
1.0110320051048838
1.0169047104043394
1.025883013796634
1.0389106535076063
1.0567088024368851
1.0794957870542365
1.10678789368971
1.1373668185825454
1.169418825314549
1.200788039755236
1.2292672834850202
1.2528501399150265
1.2698986884718537
1.279234741198426
1.2801826657088173
1.2725876771788724
1.256824841255347
1.2338042692327376
1.2049661815810204
1.1722404903864134
1.137934305676285
1.1045202267988534
1.0743256968196127
1.0491641974449062
1.0300005067842257
1.01678765620203
1.0085999440192988
1.0040458150668885
1.0017579535380028
1.0007091218345834
1.0002664156989804
1.000093374871621
1.000030551177118
1.0000093342460032
1.0000026637536863
1.0000007103267636
1.0000001771286442
1.0000000413494992
1.0000000090506145
1.0000000018611985
1.000000000360495
1.0000000000659588
1.0000000000114375
1.0000000000018863
1.0000000000002969
1.0000000000000444
1.0000000000000062
1.0000000000000007
1.0
1.0
1.0
1.0
1.0
1.0
1.0
1.0
1.0
1.0
1.0
1.0
1.0
1.0
1.0
1.0
1.0
1.0
1.0
1.0
1.0
1.0
1.0
1.0
1.0
1.0
1.0
1.0
1.0
1.0
1.0
1.0
1.0
1.0
1.0
1.0
1.0
1.0
1.0
1.0
1.0
1.0
1.0
1.0
1.0
1.0
1.0
1.0
1.0
1.0
1.0220763190000728
1.0272521033926523
1.0391118847560137
1.0557651220774744
1.0799880747803505
1.113386520426096
1.1566120127854413
1.2090857808332278
1.2689593896619793
1.3333905760048785
1.399010847919702
1.4624152574426736
1.5205411388018135
1.5708772939570854
1.611513998025395
1.6410742349895746
1.6585957147959953
1.6634320521092285
1.6552050304659618
1.6338159767574658
1.5995117171116064
1.553005877701854
1.4956455757713913
1.4295806783553733
1.357866089517753
1.2844087523666978
1.2136736558817578
1.150114232842131
1.0973948115943393
1.0575962651721027
1.0306962553106296
1.0146610543330885
1.006296939586198
1.0024597401471442
1.0008843905743583
1.0002949224021025
1.000091554851891
1.0000265012270049
1.0000071586587385
1.0000018059923688
1.0000004259572939
1.0000000940602205
1.000000019483543
1.0000000037949177
1.0000000006970593
1.0000000001211475
1.0000000000199951
1.0000000000031455
1.000000000000473
1.000000000000068
1.0000000000000093
1.000000000000001
1.0
1.0
1.0
1.0
1.0
1.0
1.0
1.0
1.0
1.0
1.0
1.0
1.0
1.0
1.0
1.0
1.0
1.0
1.0
1.0
1.0
1.0
1.0
1.0
1.0
1.0
1.0
1.0
1.0
1.0
1.0
1.0
1.0
1.0
1.0
1.0
1.0
1.0
1.0
1.0
1.0
1.0
1.0
1.0
1.0
1.0
1.0
1.0
1.0
1.1012228430164637
1.119492080689259
1.1585916152247715
1.20711487228437
1.2698359954092617
1.3463853841857119
1.4341512866324513
1.5290492278566765
1.6263528022168319
1.7215166425032054
1.8107640744323443
1.891350765907176
1.9615439902329168
2.0204036106818632
2.067496909055207
2.1026270158817466
2.1256015647826536
2.136087068162447
2.133555921176149
2.11730771180318
2.0865334095541623
2.0404303387717015
1.9784112325932077
1.9004042772346692
1.807218251042411
1.700943095657737
1.5853022841436948
1.4658041555374441
1.3494754537506284
1.2439597113216794
1.1560064095476767
1.0897956918905194
1.0457372543931558
1.0203960639697107
1.007984725944349
1.0027920564765962
1.0008905418447713
1.0002625135764038
1.0000719416564634
1.0000183755334202
1.000004381074962
1.0000009764306117
1.000000203807032
1.0000000399324964
1.0000000073654896
1.0000000012831904
1.0000000002119385
1.0000000000333178
1.0000000000050053
1.0000000000007208
1.0000000000000997
1.0000000000000129
1.0000000000000013
1.0
1.0
1.0
1.0
1.0
1.0
1.0
1.0
1.0
1.0
1.0
1.0
1.0
1.0
1.0
1.0
1.0
1.0
1.0
1.0
1.0
1.0
1.0
1.0
1.0
1.0
1.0
1.0
1.0
1.0
1.0
1.0
1.0
1.0
1.0
1.0
1.0
1.0
1.0
1.0
1.0
1.0
1.0
1.0
1.0
1.0
1.0
1.0
1.3295313011081236
1.3670468362388406
1.4445071579982363
1.53184224071809
1.6327364213932571
1.7430258121666298
1.856778079713028
1.9682004272575349
2.072658637830491
2.1670980317543656
2.250018209487479
2.321174312908356
2.3811570742482617
2.4309518980068665
2.471563403821803
2.5037558709482477
2.527891855326616
2.543853082881106
2.5510390998598
2.5484153355245036
2.534547687842812
2.5076430068732636
2.4656538426638877
2.406437295596954
2.3279982535622383
2.228872557880322
2.108678061979412
1.9688202587678196
1.8132411648102131
1.64895542931986
1.485985531999356
1.3362245934195593
1.2109065897500781
1.1173540471342875
1.056625759597618
1.0233294292767163
1.0082332474697582
1.0025535750998795
1.0007180518508527
1.0001863672131244
1.0000449742944901
1.0000101234129575
1.0000021301908135
1.0000004200088841
1.00000007781561
1.000000013592071
1.0000000022467346
1.0000000003528913
1.0000000000528928
1.0000000000075968
1.0000000000010496
1.0000000000001399
1.0000000000000178
1.000000000000002
1.0000000000000002
1.0
1.0
1.0
1.0
1.0
1.0
1.0
1.0
1.0
1.0
1.0
1.0
1.0
1.0
1.0
1.0
1.0
1.0
1.0
1.0
1.0
1.0
1.0
1.0
1.0
1.0
1.0
1.0
1.0
1.0
1.0
1.0
1.0
1.0
1.0
1.0
1.0
1.0
1.0
1.0
1.0
1.0
1.0
1.0
1.0
1.0
1.7526663373981877
1.7982501179489483
1.8922844256122935
1.9928464757833064
2.0982742313513856
2.2031114547760007
2.3019244679177246
2.390828054181383
2.4678787091434184
2.532839333208903
2.586705477076838
2.6311977647637557
2.6683075697538854
2.6999611791716047
2.7277398571902904
2.752689665689528
2.7752755441233634
2.7953824465699344
2.81235562422706
2.8250674997294216
2.8319504673120357
2.831019026447024
2.819882124193376
2.7957330485122323
2.75538473080265
2.6953816861949296
2.6122391496378055
2.5028870966372416
2.3654015677954447
2.2000738832735136
2.010727625381764
1.80589342488734
1.5991128931442382
1.40750847859182
1.2479245873105642
1.131366368347621
1.0589349334448337
1.021967183238124
1.0068580933945797
1.0018644032633546
1.000459571841325
1.0001047538187333
1.000022242542675
1.0000044154307153
1.0000008219783132
1.000000143981366
1.0000000238214841
1.0000000037382817
1.0000000005589034
1.000000000079965
1.000000000010996
1.0000000000014588
1.000000000000187
1.000000000000023
1.0000000000000027
1.0000000000000002
1.0
1.0
1.0
1.0
1.0
1.0
1.0
1.0
1.0
1.0
1.0
1.0
1.0
1.0
1.0
1.0
1.0
1.0
1.0
1.0
1.0
1.0
1.0
1.0
1.0
1.0
1.0
1.0
1.0
1.0
1.0
1.0
1.0
1.0
1.0
1.0
1.0
1.0
1.0
1.0
1.0
1.0
1.0
1.0
1.0
2.2894743593800344
2.3213704722209965
2.3895693007522603
2.4618741911075674
2.531344049457415
2.59407791956039
2.647484747984932
2.6905387123001088
2.7236873627027145
2.748438318248883
2.766893864616956
2.781349540259949
2.793993313357319
2.8067749738520678
2.8212153597519922
2.838227944339632
2.8581508705079535
2.8807879698256063
2.905449267733438
2.931006698894467
2.9559709122330187
2.9785437335290195
2.9965706244426755
3.007463507103335
3.008150723500012
2.995032549865344
2.9639623791953653
2.9102991461475747
2.8291127194636996
2.7156676027929305
2.5663443747106225
2.3801397955424513
2.160725170950402
1.9185281003087364
1.6715623582977797
1.4434075694369546
1.2571964460891882
1.1268837096073354
1.0514788596160465
1.0168601765010334
1.0045551913043773
1.0010751319298372
1.0002316940545983
1.0000463806358741
1.0000086807173678
1.0000015253013577
1.0000002526238256
1.0000000396088595
1.000000005906209
1.0000000008415166
1.0000000001150924
1.0000000000151745
1.0000000000019358
1.0000000000002394
1.0000000000000284
1.000000000000003
1.0000000000000002
1.0
1.0
1.0
1.0
1.0
1.0
1.0
1.0
1.0
1.0
1.0
1.0
1.0
1.0
1.0
1.0
1.0
1.0
1.0
1.0
1.0
1.0
1.0
1.0
1.0
1.0
1.0
1.0
1.0
1.0
1.0
1.0
1.0
1.0
1.0
1.0
1.0
1.0
1.0
1.0
1.0
1.0
1.0
1.0
2.797116067159052
2.801881810879543
2.8150613155455217
2.830310686830769
2.841154331975269
2.8460125881986404
2.8446827826699135
2.8378408272134092
2.8268765143261425
2.8136212957683364
2.800075647303594
2.7881838035379616
2.77969179794769
2.7761747074824195
2.7788650693299846
2.788443468592688
2.805110503328666
2.828625443869407
2.8583134378497417
2.8930886112126335
2.9315880375194094
2.9722622240492163
3.0132930917749077
3.052515068328447
3.0873593747063737
3.1147799677152155
3.131163624915555
3.1322349120042294
3.1129784453751053
3.067626979528084
2.989818407793301
2.8731151948043276
2.712166880722976
2.504783599669629
2.2549803067773095
1.9762322325056285
1.692769584415174
1.4361492410073735
1.2355242584425985
1.1048949120367575
1.0371062814840522
1.0103270462264544
1.0023745539181266
1.000485421123541
1.0000916047923518
1.000016158402254
1.0000026796414618
1.000000419778598
1.000000062421132
1.0000000088544296
1.0000000012039996
1.0000000001576645
1.0000000000199671
1.0000000000024545
1.0000000000002935
1.000000000000034
1.0000000000000036
1.0000000000000004
1.0
1.0
1.0
1.0
1.0
1.0
1.0
1.0
1.0
1.0
1.0
1.0
1.0
1.0
1.0
1.0
1.0
1.0
1.0
1.0
1.0
1.0
1.0
1.0
1.0
1.0
1.0
1.0
1.0
1.0
1.0
1.0
1.0
1.0
1.0
1.0
1.0
1.0
1.0
1.0
1.0
1.0
1.0
3.1807795437982667
3.157081972764874
3.1089528994309066
3.059082881969032
3.00745914617984
2.9549328789227345
2.9026089412907323
2.851576665986437
2.8030542641747322
2.758358794206277
2.718820536920692
2.685689064394944
2.6600909620469237
2.6431253968222332
2.635697541465407
2.638293512870411
2.6510486574419785
2.67376177485403
2.705853493123668
2.7463478256747034
2.7940185838601073
2.8475190331542155
2.9053126369711966
2.9655991244543896
3.026272300234341
3.0848597407052476
3.1384424128058206
3.183555249639945
3.2160664445273843
3.23103541011377
3.2225670368750965
3.1837228726639806
3.1066301265911505
2.9830751778453672
2.8060370058452215
2.5726239509233175
2.2885064511785957
1.9725512157193883
1.6579451415980309
1.3854557208543508
1.1876162521059617
1.072421949043482
1.0213823280715952
1.0049168075014294
1.0009605422723977
1.0001710099490275
1.0000284263928299
1.000004450067236
1.000000659816247
1.000000093154359
1.0000000125883841
1.0000000016363442
1.000000000205536
1.0000000000250473
1.0000000000029716
1.000000000000344
1.0000000000000386
1.000000000000004
1.0000000000000004
1.0
1.0
1.0
1.0
1.0
1.0
1.0
1.0
1.0
1.0
1.0
1.0
1.0
1.0
1.0
1.0
1.0
1.0
1.0
1.0
1.0
1.0
1.0
1.0
1.0
1.0
1.0
1.0
1.0
1.0
1.0
1.0
1.0
1.0
1.0
1.0
1.0
1.0
1.0
1.0
1.0
1.0
3.417099252893364
3.3687080106523255
3.265529993321561
3.1560013725854126
3.0484773536986074
2.9461938203459175
2.8510388939087634
2.7638900500456756
2.6853068695839557
2.6157872036343397
2.555833978658234
2.5059513344772784
2.4666550550157917
2.4385527263413653
2.4222226798740802
2.4180189271257926
2.4260810727776785
2.446322136617664
2.4783465655593546
2.521386306235847
2.5743838488457405
2.6361519984882698
2.7053806244213785
2.7805636412246733
2.8599580473525044
2.941534543837841
3.0229138849035597
3.1012945045260065
3.1733678304118356
3.2352071548719894
3.2821134598747816
3.3084123018979494
3.3072219477349263
3.270273770772587
3.1879909108521747
3.0502679612204298
2.8486694474405283
2.5807516381986275
2.2564656178960583
1.9040120689877815
1.5688470486474804
1.299962100346366
1.1260066832676434
1.040050446190654
1.0094616185293197
1.0017890620357641
1.0003010877268643
1.0000471783369784
1.000006975724488
1.0000009799401186
1.0000001315436164
1.000000016963854
1.0000000021119844
1.0000000002549494
1.000000000029953
1.000000000003436
1.0000000000003855
1.000000000000042
1.0000000000000044
1.0000000000000004
1.0
1.0
1.0
1.0
1.0
1.0
1.0
1.0
1.0
1.0
1.0
1.0
1.0
1.0
1.0
1.0
1.0
1.0
1.0
1.0
1.0
1.0
1.0
1.0
1.0
1.0
1.0
1.0
1.0
1.0
1.0
1.0
1.0
1.0
1.0
1.0
1.0
1.0
1.0
1.0
1.0
3.525396782566238
3.4555529913489664
3.305236466110699
3.1456793624919537
2.9919876486260817
2.8491696272627203
2.7196832633232493
2.6040475842732667
2.502064723135024
2.413376914328101
2.3376775031238655
2.2747772429136774
2.2246347192255413
2.187376752504381
2.1632388533047484
2.1524524682210244
2.1551854216560575
2.1714923079123487
2.2012177642042454
2.2438937297981267
2.298711356697941
2.364646803249563
2.4405834001356994
2.5252885086980754
2.6173517834197724
2.7151271518651554
2.816664971079589
2.9196477447836466
3.0213353973123436
3.1185090432341274
3.2073900649946605
3.283508905992232
3.3414998308368857
3.3748106609878588
3.3753563246724467
3.3332402028765227
3.2368701850319557
3.074185271890583
2.8361039689216496
2.523096928280223
2.1541091464305957
1.7721679587207053
1.4367793300636889
1.1980956297666643
1.0678605840708637
1.016787375185141
1.0031242428708647
1.0004988213408619
1.0000737371493602
1.0000103072173903
1.0000013737688513
1.0000001756483006
1.0000000216598006
1.000000002588138
1.0000000003008833
1.0000000000341485
1.0000000000037943
1.0000000000004134
1.000000000000044
1.0000000000000044
1.0000000000000004
1.0
1.0
1.0
1.0
1.0
1.0
1.0
1.0
1.0
1.0
1.0
1.0
1.0
1.0
1.0
1.0
1.0
1.0
1.0
1.0
1.0
1.0
1.0
1.0
1.0
1.0
1.0
1.0
1.0
1.0
1.0
1.0
1.0
1.0
1.0
1.0
1.0
1.0
1.0
1.0
3.5390903918049945
3.448753853920751
3.255894652729385
3.0544383139552327
2.8635155038202487
2.688682346638583
2.5325593468751815
2.395204078540907
2.275665293566318
2.1727789285049863
2.085497560134757
2.013006059094057
1.95475067338501
1.910415832776568
1.8798848007079079
1.863199471737568
1.8605018976799872
1.8719515458719278
1.8976190353184168
1.937367765207969
1.9907426186626735
2.056968242264
2.135111210255512
2.224202091200963
2.3231927432427275
2.430858898078547
2.5457013430385764
2.6658565560915557
2.789036703749435
2.912498393726764
3.033020185467813
3.1468624038344957
3.2496795206007394
3.336349572582124
3.400685858795413
3.435017512965735
3.4296930388225513
3.372722000560649
3.250125677068953
3.0481843650773657
2.759194508921673
2.3914869040674764
1.9804157053735103
1.5889945433094939
1.2856386744012465
1.1048222703180155
1.02736507969751
1.0050950994903733
1.0007758446182706
1.0001083420428678
1.0000143371296126
1.0000018162785809
1.0000002216606134
1.0000000261955815
1.0000000030109293
1.0000000003378264
1.0000000000371125
1.0000000000040017
1.000000000000424
1.000000000000044
1.0000000000000044
1.0000000000000004
1.0
1.0
1.0
1.0
1.0
1.0
1.0
1.0
1.0
1.0
1.0
1.0
1.0
1.0
1.0
1.0
1.0
1.0
1.0
1.0
1.0
1.0
1.0
1.0
1.0
1.0
1.0
1.0
1.0
1.0
1.0
1.0
1.0
1.0
1.0
1.0
1.0
1.0
1.0
3.4896771589729814
3.378035585233508
3.1436730692304904
2.905414990908782
2.6841735880014115
2.4845759202888527
2.3086861922911597
2.155815780258327
2.024190466509901
1.9118669794472458
1.8171167779794988
1.7385543681874696
1.6751493627103735
1.626185807657118
1.5912157146716877
1.570028282897653
1.5626171633019352
1.5691234858003553
1.5897508925762627
1.6246425044071409
1.6737365861164348
1.7366520702742252
1.8127160016528021
1.901174856635328
2.001335954447472
2.1124749978915363
2.2336582623949224
2.363591136698327
2.50051146135688
2.6421414997718227
2.785680747125143
2.927815019608122
3.0647209256581647
3.192034312136798
3.304737530167284
3.3969124583367143
3.4613136773310074
3.4887595610127247
3.467462301825275
3.3827112657355403
3.2179694622396484
2.959309008644417
2.605152952969613
2.180547892516954
1.746060496339548
1.3830176381231105
1.1492237569191364
1.0410433447066667
1.0077344687996042
1.001130298398793
1.0001493995902617
1.0000187518489299
1.0000022629808707
1.0000002642495773
1.000000030001624
1.0000000033249064
1.0000000003608371
1.000000000038448
1.0000000000040306
1.0000000000004163
1.0000000000000422
1.000000000000004
1.0000000000000004
1.0
1.0
1.0
1.0
1.0
1.0
1.0
1.0
1.0
1.0
1.0
1.0
1.0
1.0
1.0
1.0
1.0
1.0
1.0
1.0
1.0
1.0
1.0
1.0
1.0
1.0
1.0
1.0
1.0
1.0
1.0
1.0
1.0
1.0
1.0
1.0
1.0
1.0
3.4010850573944076
3.266478122168608
2.9896432124719947
2.717535604722632
2.47129299837236
2.2532309263106267
2.0639376594020913
1.9015282388857089
1.7632294860471842
1.6462920092021884
1.5483414035942296
1.4674688719313882
1.4022090493134445
1.3514800277130852
1.3145249033065842
1.2908635364891887
1.2802546375028063
1.2826718145152032
1.2982719182029272
1.3273249704463828
1.3700886787270687
1.426643425527172
1.4967634349515946
1.5799763609668027
1.6758369883741906
1.7840821930506088
1.9044430962312788
2.036358473224976
2.1787845519036826
2.3300883088138242
2.488008162003699
2.6496554647360457
2.8115493666827125
2.9696686849482057
3.1194837930786496
3.255916455333303
3.3731594662023476
3.464285100563184
3.5205963890081415
3.530765448097844
3.480043708523162
3.3504083080489435
3.123585227176005
2.7897473685146825
2.3631962992879476
1.8981429336222644
1.4833313090040245
1.1979008465997636
1.0569383480653678
1.0109099207063132
1.0015391993822567
1.00019305097172
1.00002303797261
1.0000026554864299
1.0000002974921438
1.0000000325332516
1.0000000034848122
1.000000000366621
1.0000000000379665
1.000000000003877
1.0000000000003908
1.0000000000000386
1.0000000000000038
1.0000000000000002
1.0
1.0
1.0
1.0
1.0
1.0
1.0
1.0
1.0
1.0
1.0
1.0
1.0
1.0
1.0
1.0
1.0
1.0
1.0
1.0
1.0
1.0
1.0
1.0
1.0
1.0
1.0
1.0
1.0
1.0
1.0
1.0
1.0
1.0
1.0
1.0
1.0
3.2892943334788223
3.12988805929275
2.8091897103140924
2.50563283083033
2.23920478703665
2.0086561326616668
1.8121291415995575
1.6460561967968512
1.5064611261822398
1.389746638052433
1.2929229326678422
1.213609617939936
1.1499580581741253
1.1005596048601758
1.064365457932067
1.0406239555059043