# vtk DataFile Version 3.0 
shock_diffraction_time_series_318_.vtk
ASCII
DATASET UNSTRUCTURED_GRID
POINTS         10201 double
0.0 0.0 0.0
0.01 0.0 0.0
0.02 0.0 0.0
0.03 0.0 0.0
0.04 0.0 0.0
0.05 0.0 0.0
0.06 0.0 0.0
0.07 0.0 0.0
0.08 0.0 0.0
0.09 0.0 0.0
0.1 0.0 0.0
0.11 0.0 0.0
0.12 0.0 0.0
0.13 0.0 0.0
0.14 0.0 0.0
0.15 0.0 0.0
0.16 0.0 0.0
0.17 0.0 0.0
0.18 0.0 0.0
0.19 0.0 0.0
0.2 0.0 0.0
0.21 0.0 0.0
0.22 0.0 0.0
0.23 0.0 0.0
0.24 0.0 0.0
0.25 0.0 0.0
0.26 0.0 0.0
0.27 0.0 0.0
0.28 0.0 0.0
0.29 0.0 0.0
0.3 0.0 0.0
0.31 0.0 0.0
0.32 0.0 0.0
0.33 0.0 0.0
0.34 0.0 0.0
0.35000000000000003 0.0 0.0
0.36 0.0 0.0
0.37 0.0 0.0
0.38 0.0 0.0
0.39 0.0 0.0
0.4 0.0 0.0
0.41000000000000003 0.0 0.0
0.42 0.0 0.0
0.43 0.0 0.0
0.44 0.0 0.0
0.45 0.0 0.0
0.46 0.0 0.0
0.47000000000000003 0.0 0.0
0.48 0.0 0.0
0.49 0.0 0.0
0.5 0.0 0.0
0.51 0.0 0.0
0.52 0.0 0.0
0.53 0.0 0.0
0.54 0.0 0.0
0.55 0.0 0.0
0.56 0.0 0.0
0.5700000000000001 0.0 0.0
0.58 0.0 0.0
0.59 0.0 0.0
0.6 0.0 0.0
0.61 0.0 0.0
0.62 0.0 0.0
0.63 0.0 0.0
0.64 0.0 0.0
0.65 0.0 0.0
0.66 0.0 0.0
0.67 0.0 0.0
0.68 0.0 0.0
0.6900000000000001 0.0 0.0
0.7000000000000001 0.0 0.0
0.71 0.0 0.0
0.72 0.0 0.0
0.73 0.0 0.0
0.74 0.0 0.0
0.75 0.0 0.0
0.76 0.0 0.0
0.77 0.0 0.0
0.78 0.0 0.0
0.79 0.0 0.0
0.8 0.0 0.0
0.81 0.0 0.0
0.8200000000000001 0.0 0.0
0.8300000000000001 0.0 0.0
0.84 0.0 0.0
0.85 0.0 0.0
0.86 0.0 0.0
0.87 0.0 0.0
0.88 0.0 0.0
0.89 0.0 0.0
0.9 0.0 0.0
0.91 0.0 0.0
0.92 0.0 0.0
0.93 0.0 0.0
0.9400000000000001 0.0 0.0
0.9500000000000001 0.0 0.0
0.96 0.0 0.0
0.97 0.0 0.0
0.98 0.0 0.0
0.99 0.0 0.0
1.0 0.0 0.0
0.0 0.01 0.0
0.01 0.01 0.0
0.02 0.01 0.0
0.03 0.01 0.0
0.04 0.01 0.0
0.05 0.01 0.0
0.06 0.01 0.0
0.07 0.01 0.0
0.08 0.01 0.0
0.09 0.01 0.0
0.1 0.01 0.0
0.11 0.01 0.0
0.12 0.01 0.0
0.13 0.01 0.0
0.14 0.01 0.0
0.15 0.01 0.0
0.16 0.01 0.0
0.17 0.01 0.0
0.18 0.01 0.0
0.19 0.01 0.0
0.2 0.01 0.0
0.21 0.01 0.0
0.22 0.01 0.0
0.23 0.01 0.0
0.24 0.01 0.0
0.25 0.01 0.0
0.26 0.01 0.0
0.27 0.01 0.0
0.28 0.01 0.0
0.29 0.01 0.0
0.3 0.01 0.0
0.31 0.01 0.0
0.32 0.01 0.0
0.33 0.01 0.0
0.34 0.01 0.0
0.35000000000000003 0.01 0.0
0.36 0.01 0.0
0.37 0.01 0.0
0.38 0.01 0.0
0.39 0.01 0.0
0.4 0.01 0.0
0.41000000000000003 0.01 0.0
0.42 0.01 0.0
0.43 0.01 0.0
0.44 0.01 0.0
0.45 0.01 0.0
0.46 0.01 0.0
0.47000000000000003 0.01 0.0
0.48 0.01 0.0
0.49 0.01 0.0
0.5 0.01 0.0
0.51 0.01 0.0
0.52 0.01 0.0
0.53 0.01 0.0
0.54 0.01 0.0
0.55 0.01 0.0
0.56 0.01 0.0
0.5700000000000001 0.01 0.0
0.58 0.01 0.0
0.59 0.01 0.0
0.6 0.01 0.0
0.61 0.01 0.0
0.62 0.01 0.0
0.63 0.01 0.0
0.64 0.01 0.0
0.65 0.01 0.0
0.66 0.01 0.0
0.67 0.01 0.0
0.68 0.01 0.0
0.6900000000000001 0.01 0.0
0.7000000000000001 0.01 0.0
0.71 0.01 0.0
0.72 0.01 0.0
0.73 0.01 0.0
0.74 0.01 0.0
0.75 0.01 0.0
0.76 0.01 0.0
0.77 0.01 0.0
0.78 0.01 0.0
0.79 0.01 0.0
0.8 0.01 0.0
0.81 0.01 0.0
0.8200000000000001 0.01 0.0
0.8300000000000001 0.01 0.0
0.84 0.01 0.0
0.85 0.01 0.0
0.86 0.01 0.0
0.87 0.01 0.0
0.88 0.01 0.0
0.89 0.01 0.0
0.9 0.01 0.0
0.91 0.01 0.0
0.92 0.01 0.0
0.93 0.01 0.0
0.9400000000000001 0.01 0.0
0.9500000000000001 0.01 0.0
0.96 0.01 0.0
0.97 0.01 0.0
0.98 0.01 0.0
0.99 0.01 0.0
1.0 0.01 0.0
0.0 0.02 0.0
0.01 0.02 0.0
0.02 0.02 0.0
0.03 0.02 0.0
0.04 0.02 0.0
0.05 0.02 0.0
0.06 0.02 0.0
0.07 0.02 0.0
0.08 0.02 0.0
0.09 0.02 0.0
0.1 0.02 0.0
0.11 0.02 0.0
0.12 0.02 0.0
0.13 0.02 0.0
0.14 0.02 0.0
0.15 0.02 0.0
0.16 0.02 0.0
0.17 0.02 0.0
0.18 0.02 0.0
0.19 0.02 0.0
0.2 0.02 0.0
0.21 0.02 0.0
0.22 0.02 0.0
0.23 0.02 0.0
0.24 0.02 0.0
0.25 0.02 0.0
0.26 0.02 0.0
0.27 0.02 0.0
0.28 0.02 0.0
0.29 0.02 0.0
0.3 0.02 0.0
0.31 0.02 0.0
0.32 0.02 0.0
0.33 0.02 0.0
0.34 0.02 0.0
0.35000000000000003 0.02 0.0
0.36 0.02 0.0
0.37 0.02 0.0
0.38 0.02 0.0
0.39 0.02 0.0
0.4 0.02 0.0
0.41000000000000003 0.02 0.0
0.42 0.02 0.0
0.43 0.02 0.0
0.44 0.02 0.0
0.45 0.02 0.0
0.46 0.02 0.0
0.47000000000000003 0.02 0.0
0.48 0.02 0.0
0.49 0.02 0.0
0.5 0.02 0.0
0.51 0.02 0.0
0.52 0.02 0.0
0.53 0.02 0.0
0.54 0.02 0.0
0.55 0.02 0.0
0.56 0.02 0.0
0.5700000000000001 0.02 0.0
0.58 0.02 0.0
0.59 0.02 0.0
0.6 0.02 0.0
0.61 0.02 0.0
0.62 0.02 0.0
0.63 0.02 0.0
0.64 0.02 0.0
0.65 0.02 0.0
0.66 0.02 0.0
0.67 0.02 0.0
0.68 0.02 0.0
0.6900000000000001 0.02 0.0
0.7000000000000001 0.02 0.0
0.71 0.02 0.0
0.72 0.02 0.0
0.73 0.02 0.0
0.74 0.02 0.0
0.75 0.02 0.0
0.76 0.02 0.0
0.77 0.02 0.0
0.78 0.02 0.0
0.79 0.02 0.0
0.8 0.02 0.0
0.81 0.02 0.0
0.8200000000000001 0.02 0.0
0.8300000000000001 0.02 0.0
0.84 0.02 0.0
0.85 0.02 0.0
0.86 0.02 0.0
0.87 0.02 0.0
0.88 0.02 0.0
0.89 0.02 0.0
0.9 0.02 0.0
0.91 0.02 0.0
0.92 0.02 0.0
0.93 0.02 0.0
0.9400000000000001 0.02 0.0
0.9500000000000001 0.02 0.0
0.96 0.02 0.0
0.97 0.02 0.0
0.98 0.02 0.0
0.99 0.02 0.0
1.0 0.02 0.0
0.0 0.03 0.0
0.01 0.03 0.0
0.02 0.03 0.0
0.03 0.03 0.0
0.04 0.03 0.0
0.05 0.03 0.0
0.06 0.03 0.0
0.07 0.03 0.0
0.08 0.03 0.0
0.09 0.03 0.0
0.1 0.03 0.0
0.11 0.03 0.0
0.12 0.03 0.0
0.13 0.03 0.0
0.14 0.03 0.0
0.15 0.03 0.0
0.16 0.03 0.0
0.17 0.03 0.0
0.18 0.03 0.0
0.19 0.03 0.0
0.2 0.03 0.0
0.21 0.03 0.0
0.22 0.03 0.0
0.23 0.03 0.0
0.24 0.03 0.0
0.25 0.03 0.0
0.26 0.03 0.0
0.27 0.03 0.0
0.28 0.03 0.0
0.29 0.03 0.0
0.3 0.03 0.0
0.31 0.03 0.0
0.32 0.03 0.0
0.33 0.03 0.0
0.34 0.03 0.0
0.35000000000000003 0.03 0.0
0.36 0.03 0.0
0.37 0.03 0.0
0.38 0.03 0.0
0.39 0.03 0.0
0.4 0.03 0.0
0.41000000000000003 0.03 0.0
0.42 0.03 0.0
0.43 0.03 0.0
0.44 0.03 0.0
0.45 0.03 0.0
0.46 0.03 0.0
0.47000000000000003 0.03 0.0
0.48 0.03 0.0
0.49 0.03 0.0
0.5 0.03 0.0
0.51 0.03 0.0
0.52 0.03 0.0
0.53 0.03 0.0
0.54 0.03 0.0
0.55 0.03 0.0
0.56 0.03 0.0
0.5700000000000001 0.03 0.0
0.58 0.03 0.0
0.59 0.03 0.0
0.6 0.03 0.0
0.61 0.03 0.0
0.62 0.03 0.0
0.63 0.03 0.0
0.64 0.03 0.0
0.65 0.03 0.0
0.66 0.03 0.0
0.67 0.03 0.0
0.68 0.03 0.0
0.6900000000000001 0.03 0.0
0.7000000000000001 0.03 0.0
0.71 0.03 0.0
0.72 0.03 0.0
0.73 0.03 0.0
0.74 0.03 0.0
0.75 0.03 0.0
0.76 0.03 0.0
0.77 0.03 0.0
0.78 0.03 0.0
0.79 0.03 0.0
0.8 0.03 0.0
0.81 0.03 0.0
0.8200000000000001 0.03 0.0
0.8300000000000001 0.03 0.0
0.84 0.03 0.0
0.85 0.03 0.0
0.86 0.03 0.0
0.87 0.03 0.0
0.88 0.03 0.0
0.89 0.03 0.0
0.9 0.03 0.0
0.91 0.03 0.0
0.92 0.03 0.0
0.93 0.03 0.0
0.9400000000000001 0.03 0.0
0.9500000000000001 0.03 0.0
0.96 0.03 0.0
0.97 0.03 0.0
0.98 0.03 0.0
0.99 0.03 0.0
1.0 0.03 0.0
0.0 0.04 0.0
0.01 0.04 0.0
0.02 0.04 0.0
0.03 0.04 0.0
0.04 0.04 0.0
0.05 0.04 0.0
0.06 0.04 0.0
0.07 0.04 0.0
0.08 0.04 0.0
0.09 0.04 0.0
0.1 0.04 0.0
0.11 0.04 0.0
0.12 0.04 0.0
0.13 0.04 0.0
0.14 0.04 0.0
0.15 0.04 0.0
0.16 0.04 0.0
0.17 0.04 0.0
0.18 0.04 0.0
0.19 0.04 0.0
0.2 0.04 0.0
0.21 0.04 0.0
0.22 0.04 0.0
0.23 0.04 0.0
0.24 0.04 0.0
0.25 0.04 0.0
0.26 0.04 0.0
0.27 0.04 0.0
0.28 0.04 0.0
0.29 0.04 0.0
0.3 0.04 0.0
0.31 0.04 0.0
0.32 0.04 0.0
0.33 0.04 0.0
0.34 0.04 0.0
0.35000000000000003 0.04 0.0
0.36 0.04 0.0
0.37 0.04 0.0
0.38 0.04 0.0
0.39 0.04 0.0
0.4 0.04 0.0
0.41000000000000003 0.04 0.0
0.42 0.04 0.0
0.43 0.04 0.0
0.44 0.04 0.0
0.45 0.04 0.0
0.46 0.04 0.0
0.47000000000000003 0.04 0.0
0.48 0.04 0.0
0.49 0.04 0.0
0.5 0.04 0.0
0.51 0.04 0.0
0.52 0.04 0.0
0.53 0.04 0.0
0.54 0.04 0.0
0.55 0.04 0.0
0.56 0.04 0.0
0.5700000000000001 0.04 0.0
0.58 0.04 0.0
0.59 0.04 0.0
0.6 0.04 0.0
0.61 0.04 0.0
0.62 0.04 0.0
0.63 0.04 0.0
0.64 0.04 0.0
0.65 0.04 0.0
0.66 0.04 0.0
0.67 0.04 0.0
0.68 0.04 0.0
0.6900000000000001 0.04 0.0
0.7000000000000001 0.04 0.0
0.71 0.04 0.0
0.72 0.04 0.0
0.73 0.04 0.0
0.74 0.04 0.0
0.75 0.04 0.0
0.76 0.04 0.0
0.77 0.04 0.0
0.78 0.04 0.0
0.79 0.04 0.0
0.8 0.04 0.0
0.81 0.04 0.0
0.8200000000000001 0.04 0.0
0.8300000000000001 0.04 0.0
0.84 0.04 0.0
0.85 0.04 0.0
0.86 0.04 0.0
0.87 0.04 0.0
0.88 0.04 0.0
0.89 0.04 0.0
0.9 0.04 0.0
0.91 0.04 0.0
0.92 0.04 0.0
0.93 0.04 0.0
0.9400000000000001 0.04 0.0
0.9500000000000001 0.04 0.0
0.96 0.04 0.0
0.97 0.04 0.0
0.98 0.04 0.0
0.99 0.04 0.0
1.0 0.04 0.0
0.0 0.05 0.0
0.01 0.05 0.0
0.02 0.05 0.0
0.03 0.05 0.0
0.04 0.05 0.0
0.05 0.05 0.0
0.06 0.05 0.0
0.07 0.05 0.0
0.08 0.05 0.0
0.09 0.05 0.0
0.1 0.05 0.0
0.11 0.05 0.0
0.12 0.05 0.0
0.13 0.05 0.0
0.14 0.05 0.0
0.15 0.05 0.0
0.16 0.05 0.0
0.17 0.05 0.0
0.18 0.05 0.0
0.19 0.05 0.0
0.2 0.05 0.0
0.21 0.05 0.0
0.22 0.05 0.0
0.23 0.05 0.0
0.24 0.05 0.0
0.25 0.05 0.0
0.26 0.05 0.0
0.27 0.05 0.0
0.28 0.05 0.0
0.29 0.05 0.0
0.3 0.05 0.0
0.31 0.05 0.0
0.32 0.05 0.0
0.33 0.05 0.0
0.34 0.05 0.0
0.35000000000000003 0.05 0.0
0.36 0.05 0.0
0.37 0.05 0.0
0.38 0.05 0.0
0.39 0.05 0.0
0.4 0.05 0.0
0.41000000000000003 0.05 0.0
0.42 0.05 0.0
0.43 0.05 0.0
0.44 0.05 0.0
0.45 0.05 0.0
0.46 0.05 0.0
0.47000000000000003 0.05 0.0
0.48 0.05 0.0
0.49 0.05 0.0
0.5 0.05 0.0
0.51 0.05 0.0
0.52 0.05 0.0
0.53 0.05 0.0
0.54 0.05 0.0
0.55 0.05 0.0
0.56 0.05 0.0
0.5700000000000001 0.05 0.0
0.58 0.05 0.0
0.59 0.05 0.0
0.6 0.05 0.0
0.61 0.05 0.0
0.62 0.05 0.0
0.63 0.05 0.0
0.64 0.05 0.0
0.65 0.05 0.0
0.66 0.05 0.0
0.67 0.05 0.0
0.68 0.05 0.0
0.6900000000000001 0.05 0.0
0.7000000000000001 0.05 0.0
0.71 0.05 0.0
0.72 0.05 0.0
0.73 0.05 0.0
0.74 0.05 0.0
0.75 0.05 0.0
0.76 0.05 0.0
0.77 0.05 0.0
0.78 0.05 0.0
0.79 0.05 0.0
0.8 0.05 0.0
0.81 0.05 0.0
0.8200000000000001 0.05 0.0
0.8300000000000001 0.05 0.0
0.84 0.05 0.0
0.85 0.05 0.0
0.86 0.05 0.0
0.87 0.05 0.0
0.88 0.05 0.0
0.89 0.05 0.0
0.9 0.05 0.0
0.91 0.05 0.0
0.92 0.05 0.0
0.93 0.05 0.0
0.9400000000000001 0.05 0.0
0.9500000000000001 0.05 0.0
0.96 0.05 0.0
0.97 0.05 0.0
0.98 0.05 0.0
0.99 0.05 0.0
1.0 0.05 0.0
0.0 0.06 0.0
0.01 0.06 0.0
0.02 0.06 0.0
0.03 0.06 0.0
0.04 0.06 0.0
0.05 0.06 0.0
0.06 0.06 0.0
0.07 0.06 0.0
0.08 0.06 0.0
0.09 0.06 0.0
0.1 0.06 0.0
0.11 0.06 0.0
0.12 0.06 0.0
0.13 0.06 0.0
0.14 0.06 0.0
0.15 0.06 0.0
0.16 0.06 0.0
0.17 0.06 0.0
0.18 0.06 0.0
0.19 0.06 0.0
0.2 0.06 0.0
0.21 0.06 0.0
0.22 0.06 0.0
0.23 0.06 0.0
0.24 0.06 0.0
0.25 0.06 0.0
0.26 0.06 0.0
0.27 0.06 0.0
0.28 0.06 0.0
0.29 0.06 0.0
0.3 0.06 0.0
0.31 0.06 0.0
0.32 0.06 0.0
0.33 0.06 0.0
0.34 0.06 0.0
0.35000000000000003 0.06 0.0
0.36 0.06 0.0
0.37 0.06 0.0
0.38 0.06 0.0
0.39 0.06 0.0
0.4 0.06 0.0
0.41000000000000003 0.06 0.0
0.42 0.06 0.0
0.43 0.06 0.0
0.44 0.06 0.0
0.45 0.06 0.0
0.46 0.06 0.0
[...]
POINT_DATA  10201
FIELD  FlowField  5
Density    1 10201  double
1.0009019279481972
1.0011122190946482
1.0016451007299252
1.0024983163546524
1.0038930748521742
1.0061278026994043
1.0095985690234106
1.0147828344220113
1.0221715971018865
1.03214161493114
1.0447880958607856
1.0597771212791625
1.07628309719635
1.0930494664619066
1.1085649971790503
1.1212975113030552
1.1299216453886216
1.133501950286468
1.1316121009830278
1.1243859033543122
1.1125040870337448
1.0971213046785029
1.0797334416968147
1.0619830208534262
1.0454150875920953
1.0312265354774546
1.0200807882796625
1.012056582168853
1.0067581565003243
1.0035401130557473
1.0017351989921153
1.0007966739953404
1.0003428268371017
1.0001382997917025
1.000052299200448
1.000018536060388
1.000006156167224
1.0000019157463496
1.0000005586477034
1.0000001527034814
1.0000000391501924
1.0000000094232688
1.0000000021321769
1.0000000004543006
1.0000000000913445
1.000000000017375
1.0000000000031346
1.0000000000005378
1.0000000000000877
1.0000000000000133
1.0000000000000018
1.0
1.0
1.0
1.0
1.0
1.0
1.0
1.0
1.0
1.0
1.0
1.0
1.0
1.0
1.0
1.0
1.0
1.0
1.0
1.0
1.0
1.0
1.0
1.0
1.0
1.0
1.0
1.0
1.0
1.0
1.0
1.0
1.0
1.0
1.0
1.0
1.0
1.0
1.0
1.0
1.0
1.0
1.0
1.0
1.0
1.0
1.0
1.0
1.0
1.0
1.0029080808913162
1.0036086019974353
1.005318164806628
1.0079611269139421
1.0122013819413964
1.0188101728031527
1.0286632563365679
1.0425864972034202
1.061116886560703
1.0842659575358937
1.1113823992976308
1.141164939371964
1.171812441453806
1.2012597668124987
1.227436635809451
1.2484872076698121
1.2629223300873345
1.2697132156716928
1.2683416733493116
1.258820951430394
1.2416967501615597
1.218032509762538
1.189373509751815
1.157670449418756
1.125138753214971
1.09404119406736
1.066403244010784
1.0437025906738673
1.0266143433660608
1.0149249463587848
1.00770080576274
1.0036678252158369
1.0016207939513861
1.0006673712416854
1.0002567413514278
1.0000924026711946
1.000031128444109
1.0000098172096252
1.0000028988769158
1.0000008016667252
1.0000002077298091
1.0000000504780528
1.0000000115166654
1.0000000024709972
1.0000000004996044
1.0000000000954241
1.0000000000172657
1.0000000000029683
1.0000000000004863
1.000000000000076
1.000000000000011
1.0000000000000013
1.0
1.0
1.0
1.0
1.0
1.0
1.0
1.0
1.0
1.0
1.0
1.0
1.0
1.0
1.0
1.0
1.0
1.0
1.0
1.0
1.0
1.0
1.0
1.0
1.0
1.0
1.0
1.0
1.0
1.0
1.0
1.0
1.0
1.0
1.0
1.0
1.0
1.0
1.0
1.0
1.0
1.0
1.0
1.0
1.0
1.0
1.0
1.0
1.0
1.0163393713499138
1.0201669210555244
1.0289425506919465
1.0414069410546674
1.0599672727206884
1.0863432594533828
1.1216731939320752
1.1661540549576972
1.2188245225143108
1.2776344841748002
1.33976014361962
1.4020340944648286
1.4613537837702884
1.5149763834122474
1.5606720552316873
1.5967470995173334
1.621976883372817
1.6355134224754637
1.6368147312708254
1.6256171713206993
1.6019551044288427
1.5662259761259794
1.5193010020262667
1.462666344357211
1.3985518526372398
1.329984213133745
1.2606893954048637
1.1947806951315283
1.1362193603484463
1.0881242059173521
1.0521062872116445
1.0278825549195516
1.013445780384619
1.0058671265672667
1.002341400111519
1.0008636660970425
1.0002964391025848
1.0000949825107515
1.0000284491950067
1.0000079708471363
1.0000020902163989
1.0000005134014955
1.000000118243026
1.0000000255739914
1.0000000052044267
1.0000000009989467
1.000000000181356
1.0000000000312406
1.0000000000051235
1.0000000000008025
1.0000000000001203
1.000000000000017
1.000000000000002
1.0000000000000002
1.0
1.0
1.0
1.0
1.0
1.0
1.0
1.0
1.0
1.0
1.0
1.0
1.0
1.0
1.0
1.0
1.0
1.0
1.0
1.0
1.0
1.0
1.0
1.0
1.0
1.0
1.0
1.0
1.0
1.0
1.0
1.0
1.0
1.0
1.0
1.0
1.0
1.0
1.0
1.0
1.0
1.0
1.0
1.0
1.0
1.0
1.0
1.0788840212092383
1.0937033578127067
1.1253954153371177
1.1652567970137104
1.2182278321025124
1.2849494478518075
1.3640188494190142
1.4523941537463423
1.5459777313783614
1.64036337838091
1.7315046315452425
1.8161398302019713
1.8919421328210728
1.957442036959987
2.011817614316862
2.054653990480558
2.0857132374414196
2.1047491006280086
2.111399617184812
2.1051559036417267
2.0853896433804353
2.0514186140995
2.0026264853675295
1.9386680204878541
1.859749637561042
1.7669594798159685
1.6626117183898312
1.5505215553553713
1.436069763154479
1.3258680443717046
1.2268647924416394
1.1449775671479456
1.083657583656626
1.0429212422160345
1.019402602017561
1.0077545199852391
1.002785199785423
1.0009163437782098
1.00027947577521
1.0000794448880823
1.0000210965901721
1.0000052398814474
1.0000012186813136
1.0000002657896931
1.0000000544591672
1.0000000105075242
1.0000000019144255
1.0000000003304268
1.000000000054217
1.0000000000084879
1.0000000000012723
1.000000000000183
1.0000000000000249
1.0000000000000033
1.0000000000000004
1.0
1.0
1.0
1.0
1.0
1.0
1.0
1.0
1.0
1.0
1.0
1.0
1.0
1.0
1.0
1.0
1.0
1.0
1.0
1.0
1.0
1.0
1.0
1.0
1.0
1.0
1.0
1.0
1.0
1.0
1.0
1.0
1.0
1.0
1.0
1.0
1.0
1.0
1.0
1.0
1.0
1.0
1.0
1.0
1.0
1.0
1.2746646506924821
1.3082518679952715
1.377336563597593
1.4560205250570561
1.549457740847192
1.654722130355793
1.7666270973565983
1.8794932612399795
1.9882598636158932
2.0891175684064653
2.179704707461683
2.2589813323302415
2.326919761162935
2.384120115248417
2.431434068545522
2.469671603201723
2.4994017981575043
2.5208259486104057
2.5337229371763614
2.537457875149657
2.5310228041366694
2.5130619200349567
2.481917225329741
2.435739158085928
2.3726492519405644
2.290986734610519
2.1896814042383594
2.0687715068363257
1.9300392207907207
1.7776461774301813
1.6185316676616464
1.462234943940643
1.3197347845595377
1.2011031922346942
1.1126698604084881
1.0550631179831884
1.0231490579866662
1.0084004921487826
1.0026943430356727
1.000786099076482
1.0002121951693415
1.0000533675473566
1.000012542396001
1.0000027596282504
1.0000005695150813
1.0000001104922793
1.0000000202080366
1.000000003495214
1.000000000573766
1.0000000000897364
1.0000000000134237
1.0000000000019278
1.0000000000002665
1.0000000000000355
1.0000000000000044
1.0000000000000004
1.0
1.0
1.0
1.0
1.0
1.0
1.0
1.0
1.0
1.0
1.0
1.0
1.0
1.0
1.0
1.0
1.0
1.0
1.0
1.0
1.0
1.0
1.0
1.0
1.0
1.0
1.0
1.0
1.0
1.0
1.0
1.0
1.0
1.0
1.0
1.0
1.0
1.0
1.0
1.0
1.0
1.0
1.0
1.0
1.0
1.6660913967360709
1.7109781930812136
1.8030366116766068
1.9021146814792795
2.0086883099551196
2.117776160582787
2.2236298177517906
2.3215957272786523
2.4087840098452737
2.4840447806081443
2.547617558526948
2.60068008014695
2.6449090845998358
2.6821123111219425
2.7139495806416725
2.741709996009879
2.766193459483512
2.7876864526809135
2.8059657872354924
2.820341166020273
2.829707520310892
2.832559642738496
2.827007171191343
2.8107890175846513
2.781275153601748
2.73551579674451
2.6703658963992813
2.5827340986786598
2.4700237926338358
2.330832799383193
2.165940755853116
1.9794735288860248
1.7798712303487028
1.5800173878134787
1.3958062507662667
1.2425873651965036
1.1302372028775447
1.0596556582318128
1.0229056104615109
1.0074222646536848
1.0021021623107098
1.0005406990185675
1.0001287879565453
1.0000286163764995
1.000005951417216
1.0000011614589779
1.0000002132892596
1.000000036975175
1.0000000060730134
1.0000000009487748
1.0000000001415692
1.0000000000202582
1.0000000000027907
1.0000000000003708
1.0000000000000475
1.000000000000006
1.0000000000000007
1.0
1.0
1.0
1.0
1.0
1.0
1.0
1.0
1.0
1.0
1.0
1.0
1.0
1.0
1.0
1.0
1.0
1.0
1.0
1.0
1.0
1.0
1.0
1.0
1.0
1.0
1.0
1.0
1.0
1.0
1.0
1.0
1.0
1.0
1.0
1.0
1.0
1.0
1.0
1.0
1.0
1.0
1.0
1.0
2.1944118714745624
2.2300527554814535
2.3055475789144655
2.385753214881798
2.464876411995122
2.5388811658607775
2.604467175734763
2.6597753586428317
2.704492545711429
2.7395302364788616
2.766586428211102
2.7877396784427217
2.8051199362595716
2.8206979739964213
2.8361655532985885
2.8527526776739487
2.8711409553911538
2.8915149772297495
2.91358796370585
2.9366456357173987
2.9595943691619215
2.981017100113836
2.9992008259442673
3.012087949340717
3.0172149713455956
3.011671531932664
2.9920665190734055
2.9545233419847143
2.894749751369288
2.808258605096164
2.6908518915992508
2.539504757076224
2.353759251253171
2.1375736922461837
1.901113464855666
1.6613579519581783
1.4401683051609988
1.2588790741771523
1.130534548036876
1.0546754161821932
1.0186738717601753
1.0052906647902418
1.0013095205564322
1.0002958489628042
1.0000621210377985
1.0000122031681657
1.0000022509487825
1.0000003911931594
1.0000000642924727
1.000000010033054
1.0000000014930224
1.000000000212783
1.0000000000291651
1.0000000000038594
1.0000000000004947
1.0000000000000615
1.0000000000000073
1.0000000000000007
1.0
1.0
1.0
1.0
1.0
1.0
1.0
1.0
1.0
1.0
1.0
1.0
1.0
1.0
1.0
1.0
1.0
1.0
1.0
1.0
1.0
1.0
1.0
1.0
1.0
1.0
1.0
1.0
1.0
1.0
1.0
1.0
1.0
1.0
1.0
1.0
1.0
1.0
1.0
1.0
1.0
1.0
1.0
2.7188052786794725
2.7304159484474653
2.7577953534463746
2.7877666153797054
2.813279878899678
2.8324276044705954
2.844505402604777
2.8497299232757647
2.8491306340294655
2.8442997577306306
2.837119947815864
2.829527142234061
2.823326617893486
2.8201332950524733
2.821352147766478
2.8279735093770793
2.8404868661434755
2.858969260237327
2.883099902982675
2.912175940833002
2.945147322077368
2.9807339026422612
3.017471065996469
3.0536245986027835
3.0871315415939757
3.115549814535296
3.1359906337553607
3.1450376187542695
3.138663858968093
3.11216982351926
3.060190295889579
2.9768693926585703
2.8563788492166102
2.6940218153639526
2.4881432705622686
2.242868978951896
1.9709648861413032
1.6949229836911166
1.4439180783059098
1.2452686918716487
1.1129981602701142
1.0418762884424502
1.012325147200552
1.0029969854493945
1.0006452499465974
1.0001280579021885
1.0000237492964277
1.0000041391744356
1.0000006807936965
1.000000106120218
1.0000000157469766
1.0000000022345397
1.0000000003045846
1.0000000000400484
1.0000000000050988
1.0000000000006304
1.0000000000000755
1.0000000000000084
1.0000000000000007
1.0
1.0
1.0
1.0
1.0
1.0
1.0
1.0
1.0
1.0
1.0
1.0
1.0
1.0
1.0
1.0
1.0
1.0
1.0
1.0
1.0
1.0
1.0
1.0
1.0
1.0
1.0
1.0
1.0
1.0
1.0
1.0
1.0
1.0
1.0
1.0
1.0
1.0
1.0
1.0
1.0
1.0
3.132227074185518
3.1173603101054335
3.0875105082284833
3.0558583144572364
3.0208890098904213
2.983109563668579
2.9434423015701667
2.9029204039069705
2.862752257835978
2.8242784498940248
2.788890911097413
2.757939299125869
2.7326467316814247
2.7141396228001318
2.703466216793047
2.7013673838852106
2.7081870896289435
2.723962332124725
2.7484101519755315
2.7809002275774315
2.8204678184068506
2.8659633198185106
2.916123110131301
2.9694828956834556
3.02432782753929
3.0786565083298
3.130126691810726
3.175981637097312
3.2129574860589654
3.2371703731132486
3.2439859138728777
3.2278916999385565
3.1824315765115525
3.100331916793589
2.9740799488893073
2.7973487683888894
2.5676573063534907
2.2903293311572894
1.9826297928254215
1.6748993467502926
1.4049237279666271
1.2042244675758353
1.0828921731909895
1.0261011015741655
1.0064243540020872
1.0013317646662907
1.000250151926923
1.0000437901164398
1.0000072105446984
1.000001122727915
1.0000001661035216
1.0000000234623458
1.0000000031791556
1.0000000004151022
1.0000000000524436
1.0000000000064342
1.0000000000007687
1.0000000000000893
1.0000000000000098
1.0000000000000009
1.0
1.0
1.0
1.0
1.0
1.0
1.0
1.0
1.0
1.0
1.0
1.0
1.0
1.0
1.0
1.0
1.0
1.0
1.0
1.0
1.0
1.0
1.0
1.0
1.0
1.0
1.0
1.0
1.0
1.0
1.0
1.0
1.0
1.0
1.0
1.0
1.0
1.0
1.0
1.0
1.0
3.40035131883996
3.36265951695248
3.2806460306978615
3.19077032231797
3.100192270226037
3.0119577902676484
2.928027552160295
2.8495204705234234
2.7772408370049178
2.7118959714676256
2.6541701542607856
2.6047275995263726
2.564193873569584
2.5332106355893775
2.5124610894532506
2.502469208534168
2.5035015610263676
2.5156236943634633
2.5386624243971223
2.572140513209898
2.6152507993963194
2.6669774565304003
2.7262080576796075
2.7916903588944764
2.861977178959468
2.935398763579779
3.0100228658865227
3.0836008983819747
3.1535027136103584
3.2166356221741905
3.269336273977322
3.307223562835537
3.3250098093980185
3.316291842477165
3.27339993686488
3.1874897519024357
3.0492667341918644
2.8509635761158787
2.5901750526560363
2.2755388062954394
1.9321228016651897
1.6011783017754948
1.3289765761350123
1.1457466103145322
1.0497522641216939
1.012755545701487
1.002590292680913
1.0004620013538326
1.0000763573056508
1.000011881059727
1.00000175237016
1.0000002463169342
1.0000000331644756
1.0000000042979424
1.0000000005384977
1.0000000000654878
1.000000000007757
1.0000000000008975
1.0000000000001017
1.0000000000000109
1.0000000000000009
1.0
1.0
1.0
1.0
1.0
1.0
1.0
1.0
1.0
1.0
1.0
1.0
1.0
1.0
1.0
1.0
1.0
1.0
1.0
1.0
1.0
1.0
1.0
1.0
1.0
1.0
1.0
1.0
1.0
1.0
1.0
1.0
1.0
1.0
1.0
1.0
1.0
1.0
1.0
1.0
3.536863043202078
3.479967605099276
3.3537875649253026
3.2146319456913277
3.0774844638661305
2.947543294754685
2.8276044223950807
2.7186728009168224
2.6209963322398457
2.5345714880599317
2.459362359439499
2.395379923583773
2.342707853875475
2.30153885677958
2.2721814545787464
2.2549478099516045
2.2500616773448905
2.257647799462614
2.2776826206752143
2.3099083424207243
2.3537626547978467
2.408409346615228
2.472870260718629
2.5460769975157134
2.6268223703700793
2.7137207968228614
2.8051679864602486
2.8992908360219487
2.993896973377724
3.0864263812089896
3.1738955469001824
3.2528155416378444
3.319062296257995
3.3676800225198815
3.3926117982217314
3.386386317495322
3.339872992056794
3.2423897009020166
3.082776434641858
2.852390562703985
2.5508318390391715
2.193899855658777
1.8193070238891154
1.4816244085161796
1.2309877068420063
1.0854619771188245
1.0232448696488001
1.004723694142067
1.000804752322784
1.0001256807111263
1.0000184891832893
1.000002585597889
1.0000003457641313
1.000000044449142
1.0000000055194267
1.0000000006648484
1.000000000077975
1.0000000000089324
1.0000000000010019
1.0000000000001101
1.0000000000000115
1.000000000000001
1.0
1.0
1.0
1.0
1.0
1.0
1.0
1.0
1.0
1.0
1.0
1.0
1.0
1.0
1.0
1.0
1.0
1.0
1.0
1.0
1.0
1.0
1.0
1.0
1.0
1.0
1.0
1.0
1.0
1.0
1.0
1.0
1.0
1.0
1.0
1.0
1.0
1.0
1.0
3.5735242460941024
3.4987558061169453
3.333471931291243
3.1531623086867526
2.9781291545003343
2.8147097768029643
2.6662225951715746
2.5334792339782193
2.4161653263330685
2.313596757389384
2.225069720002765
2.150003337017452
2.0879909276121453
2.0388115571916234
2.002407500614609
1.9788438107921347
1.9682623236714945
1.9708248543619882
1.9866438130980333
2.0156946777294413
2.0577182107612204
2.11215431548965
2.178201264197154
2.2549573741257025
2.3414601935238193
2.4366303323386895
2.5392081451272346
2.6476851303858373
2.7602408981474342
2.874699090986481
2.988500965254989
3.098681155937883
3.2018225731981214
3.29396431133918
3.3704331399412517
3.4255709013326014
3.4523494719460284
3.4419225124210016
3.383298110095306
3.2636079303825802
3.069972700947821
2.794368248308609
2.44228629716094
2.0429578487417848
1.6520561528178572
1.3352679152391105
1.1335503266114295
1.0387609445205843
1.0080339752017629
1.001318671917355
1.0001949039739313
1.000027134614962
1.0000036025822523
1.0000004591127847
1.000000056460749
1.000000006731375
1.000000000781122
1.0000000000885227
1.000000000009825
1.0000000000010705
1.0000000000001146
1.000000000000012
1.000000000000001
1.0
1.0
1.0
1.0
1.0
1.0
1.0
1.0
1.0
1.0
1.0
1.0
1.0
1.0
1.0
1.0
1.0
1.0
1.0
1.0
1.0
1.0
1.0
1.0
1.0
1.0
1.0
1.0
1.0
1.0
1.0
1.0
1.0
1.0
1.0
1.0
1.0
1.0
3.5422336025566663
3.4489274617858747
3.2458160784001295
3.0294470693340303
2.8231691531574965
2.633148387225662
2.462618545462473
2.3119648046945844
2.1802492912969313
2.066123083962017
1.9682606518795638
1.8855395441650522
1.8170965259021172
1.76232099568011
1.7208198512523694
1.6923904877667422
1.6770024966252974
1.6747577308636177
1.6858288999772064
1.7103725877584897
1.748419289126495
1.7997629304273692
1.8639003001060859
1.9401199862831007
2.0276770088632095
2.125830640388226
2.2337425157137254
2.3503589850299744
2.474307198335671
2.6038226624118663
2.736715679978716
2.8703679944707603
3.0017400282342837
3.1273672140245723
3.243317590816088
3.345073040568527
3.427290950217006
3.4834098689640185
3.5050985705653637
3.4816482072023405
3.399643498474761
3.243770190483222
3.000379057913446
2.66561766562574
2.258029442875344
1.8285454196897768
1.4522139067117465
1.1921772865788731
1.0593266325210091
1.012692102160786
1.0020273526483612
1.0002842546405013
1.000037504030029
1.000004735536299
1.0000005762974051
1.000000067946632
1.0000000077948563
1.0000000008732384
1.0000000000958167
1.0000000000103233
1.000000000001094
1.0000000000001141
1.0000000000000115
1.0000000000000009
1.0
1.0
1.0
1.0
1.0
1.0
1.0
1.0
1.0
1.0
1.0
1.0
1.0
1.0
1.0
1.0
1.0
1.0
1.0
1.0
1.0
1.0
1.0
1.0
1.0
1.0
1.0
1.0
1.0
1.0
1.0
1.0
1.0
1.0
1.0
1.0
1.0
3.468128461516668
3.3545482008234626
3.1124163914600684
2.8625249196250033
2.629744868226534
2.4188345805642095
2.2321164154720328
2.069128802497577
1.9281280553333993
1.807052235885923
1.7039675873528817
1.6172416172652357
1.5455812689017425
1.4880085092915383
1.443818989097505
1.4125465517050217
1.3939336350934692
1.387909509550651
1.3945653173467067
1.414105216267085
1.446761417206316
1.4926694779683287
1.551739000293213
1.6235971281262145
1.7077080160395495
1.803596646787831
1.9108752552291817
2.0290577640166387
2.157372991189507
2.2946297465959846
2.4391378275837856
2.5886842984145844
2.740548444080754
2.8915373379871783
3.0380250107633353
3.1759666204839796
3.300843095997981
3.4074805167296978
3.489686576686761
3.539665800860116
3.5472459976176722
3.4991349755134173
3.378880132944265
3.169094460033192
2.8583838424102326
2.4545875945793663
2.000296513226789
1.5739725943732803
1.2576546375804427
1.0839489877715693
1.0186004534465307
1.0029175696333816
1.000389194984618
1.0000487568901058
1.00000586771215
1.000000683512866
1.00000007744763
1.0000000085692757
1.0000000009288161
1.0000000000988751
1.000000000010359
1.0000000000010698
1.000000000000109
1.0000000000000104
1.0000000000000007
1.0
1.0
1.0
1.0
1.0
1.0
1.0
1.0
1.0
1.0
1.0
1.0
1.0
1.0
1.0
1.0
1.0
1.0
1.0
1.0
1.0
1.0
1.0
1.0
1.0
1.0
1.0
1.0
1.0
1.0
1.0
1.0
1.0
1.0
1.0
1.0
3.3685522556391243
3.2325907170826342
2.9493318839094647
2.6673660240706925
2.4119442603745935
2.1853432635333756
1.988049737636145
1.8182429923458154
1.673117644807348
1.5498073141193425
1.4457640520209847
1.358872223163074
1.2874423711384786
1.230159890695382
1.1860277967680948
1.154317534446054
1.1345305011359734
1.1263725173117884
1.129741319551547
1.1447236450833134
1.171574131272712
1.2106418100187846
1.2622314329461535
1.3264475486214093
1.4031327846969615
1.4920295165165234
1.593055145192714
1.7062958338098486
1.8317104402594038
1.9688647827939585
2.1167822358200494
2.2738734508826144
2.4379168150246615
2.606073446194859
2.7749404869499537
2.9406340772864947
3.098865927936986
3.2449602081362388
3.373745480815057
3.4792468953195876
3.5541119058529875
3.5887487531867253
3.570305147832348
3.481992839084971
3.3041474917663165
3.019705593959271
2.627015871088858
2.158897540468991
1.692743715202342
1.3251917008556875
1.110742262035173
1.0253238526568134
1.0039230706367812
1.0004994652684465
1.0000595551019587
1.0000068488685514
1.000000765691314
1.000000083594598
1.0000000089425591
1.0000000009398846
1.000000000097266
1.0000000000099285
1.0000000000010012
1.0000000000000993
1.000000000000009
1.0000000000000007
1.0
1.0
1.0
1.0
1.0
1.0
1.0
1.0
1.0
1.0
1.0
1.0
1.0
1.0
1.0
1.0
1.0
1.0
1.0
1.0
1.0
1.0
1.0
1.0
1.0
1.0
1.0
1.0
1.0
1.0
1.0
1.0
1.0
1.0
1.0
3.2542579662282627
3.093899624169733
2.7676561652594587
2.4553721542792375
2.1813985146398736
1.944408009959435
1.7421609045026374
1.5710011697807709
1.4268380039767854
1.3059274582292248
1.2051113728110026
1.12182630145979
1.0540301988588343
1.000112090013956
0.9588110288388525
0.9291517209492661
0.9103987207651025
0.902029068557734
0.903721215444702
0.9153579103287756
0.9370423712294831
0.9691091574873694
1.0120733131872177
1.0664695274289446
1.1326626700444176
1.210792702702134
1.3009866616301702
1.4036609530594353
1.5194569956513633
1.6488264642613597
1.7917013721685984
1.9473598313350027
2.1143570088700687
2.2904861112823744
2.472787129183364
2.657616222159676
2.840764150730125
3.0175921302018005
3.183128685011646
3.332045283299759
3.458420039602549
3.5551997867489082
3.613301671700195
3.6204068864074848
3.5598166160035487
3.41057164036774
3.1515195691810676
2.7731682766340096
2.2987088840460306