# vtk DataFile Version 3.0 
shock_diffraction_time_series_477_.vtk
ASCII
DATASET UNSTRUCTURED_GRID
POINTS         10201 double
0.0 0.0 0.0
0.01 0.0 0.0
0.02 0.0 0.0
0.03 0.0 0.0
0.04 0.0 0.0
0.05 0.0 0.0
0.06 0.0 0.0
0.07 0.0 0.0
0.08 0.0 0.0
0.09 0.0 0.0
0.1 0.0 0.0
0.11 0.0 0.0
0.12 0.0 0.0
0.13 0.0 0.0
0.14 0.0 0.0
0.15 0.0 0.0
0.16 0.0 0.0
0.17 0.0 0.0
0.18 0.0 0.0
0.19 0.0 0.0
0.2 0.0 0.0
0.21 0.0 0.0
0.22 0.0 0.0
0.23 0.0 0.0
0.24 0.0 0.0
0.25 0.0 0.0
0.26 0.0 0.0
0.27 0.0 0.0
0.28 0.0 0.0
0.29 0.0 0.0
0.3 0.0 0.0
0.31 0.0 0.0
0.32 0.0 0.0
0.33 0.0 0.0
0.34 0.0 0.0
0.35000000000000003 0.0 0.0
0.36 0.0 0.0
0.37 0.0 0.0
0.38 0.0 0.0
0.39 0.0 0.0
0.4 0.0 0.0
0.41000000000000003 0.0 0.0
0.42 0.0 0.0
0.43 0.0 0.0
0.44 0.0 0.0
0.45 0.0 0.0
0.46 0.0 0.0
0.47000000000000003 0.0 0.0
0.48 0.0 0.0
0.49 0.0 0.0
0.5 0.0 0.0
0.51 0.0 0.0
0.52 0.0 0.0
0.53 0.0 0.0
0.54 0.0 0.0
0.55 0.0 0.0
0.56 0.0 0.0
0.5700000000000001 0.0 0.0
0.58 0.0 0.0
0.59 0.0 0.0
0.6 0.0 0.0
0.61 0.0 0.0
0.62 0.0 0.0
0.63 0.0 0.0
0.64 0.0 0.0
0.65 0.0 0.0
0.66 0.0 0.0
0.67 0.0 0.0
0.68 0.0 0.0
0.6900000000000001 0.0 0.0
0.7000000000000001 0.0 0.0
0.71 0.0 0.0
0.72 0.0 0.0
0.73 0.0 0.0
0.74 0.0 0.0
0.75 0.0 0.0
0.76 0.0 0.0
0.77 0.0 0.0
0.78 0.0 0.0
0.79 0.0 0.0
0.8 0.0 0.0
0.81 0.0 0.0
0.8200000000000001 0.0 0.0
0.8300000000000001 0.0 0.0
0.84 0.0 0.0
0.85 0.0 0.0
0.86 0.0 0.0
0.87 0.0 0.0
0.88 0.0 0.0
0.89 0.0 0.0
0.9 0.0 0.0
0.91 0.0 0.0
0.92 0.0 0.0
0.93 0.0 0.0
0.9400000000000001 0.0 0.0
0.9500000000000001 0.0 0.0
0.96 0.0 0.0
0.97 0.0 0.0
0.98 0.0 0.0
0.99 0.0 0.0
1.0 0.0 0.0
0.0 0.01 0.0
0.01 0.01 0.0
0.02 0.01 0.0
0.03 0.01 0.0
0.04 0.01 0.0
0.05 0.01 0.0
0.06 0.01 0.0
0.07 0.01 0.0
0.08 0.01 0.0
0.09 0.01 0.0
0.1 0.01 0.0
0.11 0.01 0.0
0.12 0.01 0.0
0.13 0.01 0.0
0.14 0.01 0.0
0.15 0.01 0.0
0.16 0.01 0.0
0.17 0.01 0.0
0.18 0.01 0.0
0.19 0.01 0.0
0.2 0.01 0.0
0.21 0.01 0.0
0.22 0.01 0.0
0.23 0.01 0.0
0.24 0.01 0.0
0.25 0.01 0.0
0.26 0.01 0.0
0.27 0.01 0.0
0.28 0.01 0.0
0.29 0.01 0.0
0.3 0.01 0.0
0.31 0.01 0.0
0.32 0.01 0.0
0.33 0.01 0.0
0.34 0.01 0.0
0.35000000000000003 0.01 0.0
0.36 0.01 0.0
0.37 0.01 0.0
0.38 0.01 0.0
0.39 0.01 0.0
0.4 0.01 0.0
0.41000000000000003 0.01 0.0
0.42 0.01 0.0
0.43 0.01 0.0
0.44 0.01 0.0
0.45 0.01 0.0
0.46 0.01 0.0
0.47000000000000003 0.01 0.0
0.48 0.01 0.0
0.49 0.01 0.0
0.5 0.01 0.0
0.51 0.01 0.0
0.52 0.01 0.0
0.53 0.01 0.0
0.54 0.01 0.0
0.55 0.01 0.0
0.56 0.01 0.0
0.5700000000000001 0.01 0.0
0.58 0.01 0.0
0.59 0.01 0.0
0.6 0.01 0.0
0.61 0.01 0.0
0.62 0.01 0.0
0.63 0.01 0.0
0.64 0.01 0.0
0.65 0.01 0.0
0.66 0.01 0.0
0.67 0.01 0.0
0.68 0.01 0.0
0.6900000000000001 0.01 0.0
0.7000000000000001 0.01 0.0
0.71 0.01 0.0
0.72 0.01 0.0
0.73 0.01 0.0
0.74 0.01 0.0
0.75 0.01 0.0
0.76 0.01 0.0
0.77 0.01 0.0
0.78 0.01 0.0
0.79 0.01 0.0
0.8 0.01 0.0
0.81 0.01 0.0
0.8200000000000001 0.01 0.0
0.8300000000000001 0.01 0.0
0.84 0.01 0.0
0.85 0.01 0.0
0.86 0.01 0.0
0.87 0.01 0.0
0.88 0.01 0.0
0.89 0.01 0.0
0.9 0.01 0.0
0.91 0.01 0.0
0.92 0.01 0.0
0.93 0.01 0.0
0.9400000000000001 0.01 0.0
0.9500000000000001 0.01 0.0
0.96 0.01 0.0
0.97 0.01 0.0
0.98 0.01 0.0
0.99 0.01 0.0
1.0 0.01 0.0
0.0 0.02 0.0
0.01 0.02 0.0
0.02 0.02 0.0
0.03 0.02 0.0
0.04 0.02 0.0
0.05 0.02 0.0
0.06 0.02 0.0
0.07 0.02 0.0
0.08 0.02 0.0
0.09 0.02 0.0
0.1 0.02 0.0
0.11 0.02 0.0
0.12 0.02 0.0
0.13 0.02 0.0
0.14 0.02 0.0
0.15 0.02 0.0
0.16 0.02 0.0
0.17 0.02 0.0
0.18 0.02 0.0
0.19 0.02 0.0
0.2 0.02 0.0
0.21 0.02 0.0
0.22 0.02 0.0
0.23 0.02 0.0
0.24 0.02 0.0
0.25 0.02 0.0
0.26 0.02 0.0
0.27 0.02 0.0
0.28 0.02 0.0
0.29 0.02 0.0
0.3 0.02 0.0
0.31 0.02 0.0
0.32 0.02 0.0
0.33 0.02 0.0
0.34 0.02 0.0
0.35000000000000003 0.02 0.0
0.36 0.02 0.0
0.37 0.02 0.0
0.38 0.02 0.0
0.39 0.02 0.0
0.4 0.02 0.0
0.41000000000000003 0.02 0.0
0.42 0.02 0.0
0.43 0.02 0.0
0.44 0.02 0.0
0.45 0.02 0.0
0.46 0.02 0.0
0.47000000000000003 0.02 0.0
0.48 0.02 0.0
0.49 0.02 0.0
0.5 0.02 0.0
0.51 0.02 0.0
0.52 0.02 0.0
0.53 0.02 0.0
0.54 0.02 0.0
0.55 0.02 0.0
0.56 0.02 0.0
0.5700000000000001 0.02 0.0
0.58 0.02 0.0
0.59 0.02 0.0
0.6 0.02 0.0
0.61 0.02 0.0
0.62 0.02 0.0
0.63 0.02 0.0
0.64 0.02 0.0
0.65 0.02 0.0
0.66 0.02 0.0
0.67 0.02 0.0
0.68 0.02 0.0
0.6900000000000001 0.02 0.0
0.7000000000000001 0.02 0.0
0.71 0.02 0.0
0.72 0.02 0.0
0.73 0.02 0.0
0.74 0.02 0.0
0.75 0.02 0.0
0.76 0.02 0.0
0.77 0.02 0.0
0.78 0.02 0.0
0.79 0.02 0.0
0.8 0.02 0.0
0.81 0.02 0.0
0.8200000000000001 0.02 0.0
0.8300000000000001 0.02 0.0
0.84 0.02 0.0
0.85 0.02 0.0
0.86 0.02 0.0
0.87 0.02 0.0
0.88 0.02 0.0
0.89 0.02 0.0
0.9 0.02 0.0
0.91 0.02 0.0
0.92 0.02 0.0
0.93 0.02 0.0
0.9400000000000001 0.02 0.0
0.9500000000000001 0.02 0.0
0.96 0.02 0.0
0.97 0.02 0.0
0.98 0.02 0.0
0.99 0.02 0.0
1.0 0.02 0.0
0.0 0.03 0.0
0.01 0.03 0.0
0.02 0.03 0.0
0.03 0.03 0.0
0.04 0.03 0.0
0.05 0.03 0.0
0.06 0.03 0.0
0.07 0.03 0.0
0.08 0.03 0.0
0.09 0.03 0.0
0.1 0.03 0.0
0.11 0.03 0.0
0.12 0.03 0.0
0.13 0.03 0.0
0.14 0.03 0.0
0.15 0.03 0.0
0.16 0.03 0.0
0.17 0.03 0.0
0.18 0.03 0.0
0.19 0.03 0.0
0.2 0.03 0.0
0.21 0.03 0.0
0.22 0.03 0.0
0.23 0.03 0.0
0.24 0.03 0.0
0.25 0.03 0.0
0.26 0.03 0.0
0.27 0.03 0.0
0.28 0.03 0.0
0.29 0.03 0.0
0.3 0.03 0.0
0.31 0.03 0.0
0.32 0.03 0.0
0.33 0.03 0.0
0.34 0.03 0.0
0.35000000000000003 0.03 0.0
0.36 0.03 0.0
0.37 0.03 0.0
0.38 0.03 0.0
0.39 0.03 0.0
0.4 0.03 0.0
0.41000000000000003 0.03 0.0
0.42 0.03 0.0
0.43 0.03 0.0
0.44 0.03 0.0
0.45 0.03 0.0
0.46 0.03 0.0
0.47000000000000003 0.03 0.0
0.48 0.03 0.0
0.49 0.03 0.0
0.5 0.03 0.0
0.51 0.03 0.0
0.52 0.03 0.0
0.53 0.03 0.0
0.54 0.03 0.0
0.55 0.03 0.0
0.56 0.03 0.0
0.5700000000000001 0.03 0.0
0.58 0.03 0.0
0.59 0.03 0.0
0.6 0.03 0.0
0.61 0.03 0.0
0.62 0.03 0.0
0.63 0.03 0.0
0.64 0.03 0.0
0.65 0.03 0.0
0.66 0.03 0.0
0.67 0.03 0.0
0.68 0.03 0.0
0.6900000000000001 0.03 0.0
0.7000000000000001 0.03 0.0
0.71 0.03 0.0
0.72 0.03 0.0
0.73 0.03 0.0
0.74 0.03 0.0
0.75 0.03 0.0
0.76 0.03 0.0
0.77 0.03 0.0
0.78 0.03 0.0
0.79 0.03 0.0
0.8 0.03 0.0
0.81 0.03 0.0
0.8200000000000001 0.03 0.0
0.8300000000000001 0.03 0.0
0.84 0.03 0.0
0.85 0.03 0.0
0.86 0.03 0.0
0.87 0.03 0.0
0.88 0.03 0.0
0.89 0.03 0.0
0.9 0.03 0.0
0.91 0.03 0.0
0.92 0.03 0.0
0.93 0.03 0.0
0.9400000000000001 0.03 0.0
0.9500000000000001 0.03 0.0
0.96 0.03 0.0
0.97 0.03 0.0
0.98 0.03 0.0
0.99 0.03 0.0
1.0 0.03 0.0
0.0 0.04 0.0
0.01 0.04 0.0
0.02 0.04 0.0
0.03 0.04 0.0
0.04 0.04 0.0
0.05 0.04 0.0
0.06 0.04 0.0
0.07 0.04 0.0
0.08 0.04 0.0
0.09 0.04 0.0
0.1 0.04 0.0
0.11 0.04 0.0
0.12 0.04 0.0
0.13 0.04 0.0
0.14 0.04 0.0
0.15 0.04 0.0
0.16 0.04 0.0
0.17 0.04 0.0
0.18 0.04 0.0
0.19 0.04 0.0
0.2 0.04 0.0
0.21 0.04 0.0
0.22 0.04 0.0
0.23 0.04 0.0
0.24 0.04 0.0
0.25 0.04 0.0
0.26 0.04 0.0
0.27 0.04 0.0
0.28 0.04 0.0
0.29 0.04 0.0
0.3 0.04 0.0
0.31 0.04 0.0
0.32 0.04 0.0
0.33 0.04 0.0
0.34 0.04 0.0
0.35000000000000003 0.04 0.0
0.36 0.04 0.0
0.37 0.04 0.0
0.38 0.04 0.0
0.39 0.04 0.0
0.4 0.04 0.0
0.41000000000000003 0.04 0.0
0.42 0.04 0.0
0.43 0.04 0.0
0.44 0.04 0.0
0.45 0.04 0.0
0.46 0.04 0.0
0.47000000000000003 0.04 0.0
0.48 0.04 0.0
0.49 0.04 0.0
0.5 0.04 0.0
0.51 0.04 0.0
0.52 0.04 0.0
0.53 0.04 0.0
0.54 0.04 0.0
0.55 0.04 0.0
0.56 0.04 0.0
0.5700000000000001 0.04 0.0
0.58 0.04 0.0
0.59 0.04 0.0
0.6 0.04 0.0
0.61 0.04 0.0
0.62 0.04 0.0
0.63 0.04 0.0
0.64 0.04 0.0
0.65 0.04 0.0
0.66 0.04 0.0
0.67 0.04 0.0
0.68 0.04 0.0
0.6900000000000001 0.04 0.0
0.7000000000000001 0.04 0.0
0.71 0.04 0.0
0.72 0.04 0.0
0.73 0.04 0.0
0.74 0.04 0.0
0.75 0.04 0.0
0.76 0.04 0.0
0.77 0.04 0.0
0.78 0.04 0.0
0.79 0.04 0.0
0.8 0.04 0.0
0.81 0.04 0.0
0.8200000000000001 0.04 0.0
0.8300000000000001 0.04 0.0
0.84 0.04 0.0
0.85 0.04 0.0
0.86 0.04 0.0
0.87 0.04 0.0
0.88 0.04 0.0
0.89 0.04 0.0
0.9 0.04 0.0
0.91 0.04 0.0
0.92 0.04 0.0
0.93 0.04 0.0
0.9400000000000001 0.04 0.0
0.9500000000000001 0.04 0.0
0.96 0.04 0.0
0.97 0.04 0.0
0.98 0.04 0.0
0.99 0.04 0.0
1.0 0.04 0.0
0.0 0.05 0.0
0.01 0.05 0.0
0.02 0.05 0.0
0.03 0.05 0.0
0.04 0.05 0.0
0.05 0.05 0.0
0.06 0.05 0.0
0.07 0.05 0.0
0.08 0.05 0.0
0.09 0.05 0.0
0.1 0.05 0.0
0.11 0.05 0.0
0.12 0.05 0.0
0.13 0.05 0.0
0.14 0.05 0.0
0.15 0.05 0.0
0.16 0.05 0.0
0.17 0.05 0.0
0.18 0.05 0.0
0.19 0.05 0.0
0.2 0.05 0.0
0.21 0.05 0.0
0.22 0.05 0.0
0.23 0.05 0.0
0.24 0.05 0.0
0.25 0.05 0.0
0.26 0.05 0.0
0.27 0.05 0.0
0.28 0.05 0.0
0.29 0.05 0.0
0.3 0.05 0.0
0.31 0.05 0.0
0.32 0.05 0.0
0.33 0.05 0.0
0.34 0.05 0.0
0.35000000000000003 0.05 0.0
0.36 0.05 0.0
0.37 0.05 0.0
0.38 0.05 0.0
0.39 0.05 0.0
0.4 0.05 0.0
0.41000000000000003 0.05 0.0
0.42 0.05 0.0
0.43 0.05 0.0
0.44 0.05 0.0
0.45 0.05 0.0
0.46 0.05 0.0
0.47000000000000003 0.05 0.0
0.48 0.05 0.0
0.49 0.05 0.0
0.5 0.05 0.0
0.51 0.05 0.0
0.52 0.05 0.0
0.53 0.05 0.0
0.54 0.05 0.0
0.55 0.05 0.0
0.56 0.05 0.0
0.5700000000000001 0.05 0.0
0.58 0.05 0.0
0.59 0.05 0.0
0.6 0.05 0.0
0.61 0.05 0.0
0.62 0.05 0.0
0.63 0.05 0.0
0.64 0.05 0.0
0.65 0.05 0.0
0.66 0.05 0.0
0.67 0.05 0.0
0.68 0.05 0.0
0.6900000000000001 0.05 0.0
0.7000000000000001 0.05 0.0
0.71 0.05 0.0
0.72 0.05 0.0
0.73 0.05 0.0
0.74 0.05 0.0
0.75 0.05 0.0
0.76 0.05 0.0
0.77 0.05 0.0
0.78 0.05 0.0
0.79 0.05 0.0
0.8 0.05 0.0
0.81 0.05 0.0
0.8200000000000001 0.05 0.0
0.8300000000000001 0.05 0.0
0.84 0.05 0.0
0.85 0.05 0.0
0.86 0.05 0.0
0.87 0.05 0.0
0.88 0.05 0.0
0.89 0.05 0.0
0.9 0.05 0.0
0.91 0.05 0.0
0.92 0.05 0.0
0.93 0.05 0.0
0.9400000000000001 0.05 0.0
0.9500000000000001 0.05 0.0
0.96 0.05 0.0
0.97 0.05 0.0
0.98 0.05 0.0
0.99 0.05 0.0
1.0 0.05 0.0
0.0 0.06 0.0
0.01 0.06 0.0
0.02 0.06 0.0
0.03 0.06 0.0
0.04 0.06 0.0
0.05 0.06 0.0
0.06 0.06 0.0
0.07 0.06 0.0
0.08 0.06 0.0
0.09 0.06 0.0
0.1 0.06 0.0
0.11 0.06 0.0
0.12 0.06 0.0
0.13 0.06 0.0
0.14 0.06 0.0
0.15 0.06 0.0
0.16 0.06 0.0
0.17 0.06 0.0
0.18 0.06 0.0
0.19 0.06 0.0
0.2 0.06 0.0
0.21 0.06 0.0
0.22 0.06 0.0
0.23 0.06 0.0
0.24 0.06 0.0
0.25 0.06 0.0
0.26 0.06 0.0
0.27 0.06 0.0
0.28 0.06 0.0
0.29 0.06 0.0
0.3 0.06 0.0
0.31 0.06 0.0
0.32 0.06 0.0
0.33 0.06 0.0
0.34 0.06 0.0
0.35000000000000003 0.06 0.0
0.36 0.06 0.0
0.37 0.06 0.0
0.38 0.06 0.0
0.39 0.06 0.0
0.4 0.06 0.0
0.41000000000000003 0.06 0.0
0.42 0.06 0.0
0.43 0.06 0.0
0.44 0.06 0.0
0.45 0.06 0.0
0.46 0.06 0.0
[...]
POINT_DATA  10201
FIELD  FlowField  5
Density    1 10201  double
8.363885604759988
8.261599851686672
7.978540992391089
7.596722661735139
7.190768491939522
6.785532208699362
6.394639981504241
6.026344272339567
5.685596663778918
5.375488345087271
5.097948412448443
4.853923259096202
4.643392674993811
4.465454447152279
4.318515601668919
4.20053587399423
4.109253243425669
4.04236486215543
3.9976640417370923
3.973124217396464
3.966895196335333
3.97726520699424
4.002664741781837
4.041656592693029
4.092915489892533
4.155239036612779
4.227537988288805
4.3088111447225526
4.398143979618597
4.494719387071666
4.597832170640218
4.706897544661223
4.821455157344133
4.9411833759032175
5.06591902527689
5.195659180030884
5.330544193410674
5.470832696062766
5.616889341080727
5.7691647104217765
5.928154401730633
6.094361683974343
6.268249707600537
6.4501816884917496
6.640355760351954
6.838735255583243
7.0449810645483035
7.258393820082408
7.477871698007119
7.70188740687175
7.9284858091581905
8.155300171025758
8.379581059526974
8.598228242183186
8.807812584728254
9.004574995410326
9.184390006090023
9.342683562013121
9.474292410753609
9.573249390054471
9.63249799906687
9.643524585940778
9.595873813955517
9.476913323912825
9.271712767328623
8.963286746181637
8.534373903994393
7.970701349898139
7.2647873734538155
6.420318105013975
5.457691739123871
4.419045571513873
3.3713908609290666
2.4128446192249187
1.6678351100220414
1.225086401116693
1.0485198225680246
1.0067949081613805
1.0007924369808214
1.0000885825324877
1.0000097105225971
1.000001047441735
1.0000001113508252
1.000000011682313
1.0000000012111054
1.0000000001242046
1.000000000012613
1.0000000000012692
1.0000000000001266
1.0000000000000124
1.0000000000000009
1.0
1.0
1.0
1.0
1.0
1.0
1.0
1.0
1.0
1.0
8.244956085188742
8.1206202199898
7.789822467354772
7.363429026205087
6.925266479282152
6.498541124207591
6.095940271325132
5.724367267614362
5.38695921283313
5.084795834926734
4.817882471295087
4.58554957154373
4.386575879531988
4.2192628511090255
4.081550039967749
3.9711637913792197
3.8857574984811487
3.823027118370114
3.7808045265899164
3.757116289110245
3.7501798149837877
3.7583671243445433
3.7801980125923755
3.8143450044379534
3.8596162736396367
3.91493652730502
3.979333332202291
4.051919894147561
4.131889867911388
4.218520467675901
4.311164455156924
4.409238399848054
4.512280719885194
4.62000532157017
4.7322840946301215
4.8491347196724215
4.970703661756197
5.097246157706046
5.229120949357268
5.366769863374554
5.510686960270292
5.661394331812147
5.819404883770923
5.98517377388643
6.159043958827612
6.341183517323802
6.531519366689045
6.729673876411725
6.934909325684845
7.14608345040615
7.361617840276756
7.579477957729821
7.797160122246474
8.011677176929686
8.219529575777111
8.416648442564613
8.59829561951911
8.758915648934948
8.891922250250763
8.989242840441305
9.040878226477828
9.034806259010725
8.957320260188688
8.793998230973616
8.531152900976664
8.158039012335434
7.670771246560101
7.07753790623916
6.400571881567442
5.670203967105296
4.9123388789286455
4.139158072806675
3.356680070220696
2.5905969467586463
1.9103640734449285
1.4097316596397145
1.1324918881905917
1.0280568056544745
1.0038889363851928
1.000443501514698
1.0000482774329784
1.000005152833563
1.0000005417830133
1.0000000562249816
1.000000005767315
1.0000000005854237
1.0000000000588645
1.000000000005868
1.0000000000005804
1.0000000000000566
1.0000000000000049
1.0000000000000004
1.0
1.0
1.0
1.0
1.0
1.0
1.0
1.0
1.0
7.97542641664189
7.796996999942885
7.350484644033267
6.818806652976423
6.308095608808851
5.836407171867819
5.4124481310278405
5.038734451072535
4.713520539180697
4.433032639235479
4.192938915422121
3.989068530297355
3.8176523429516633
3.6753282737992348
3.5590799223628924
3.4661759106151515
3.394123784001236
3.340649055385729
3.3036966296481363
3.281434762939834
3.272241199887455
3.274672982089908
3.2874530727003544
3.30947970102354
3.3398092015682557
3.377621995924163
3.42221394684251
3.4729797063235637
3.5294002298025724
3.591040906734717
3.6575360578492186
3.728571548201426
3.803858920055292
3.8831365579776747
3.966302394367489
4.05342241476145
4.144618997151216
4.240103650126565
4.34018943331006
4.445252867800225
4.555730427953322
4.672127556538564
4.795008394023242
4.924975578882936
5.0626421599432945
5.208588547170748
5.363303310708116
5.527109177956504
5.70007695182994
5.881928824584312
6.071931535596379
6.268779603578336
6.470464442676908
6.674121366924641
6.875837765998798
7.070411395003591
7.250939464937214
7.407949920637142
7.528795701639451
7.597856605181985
7.597375238446404
7.509303539539519
7.319056783241276
7.021618328391509
6.628678974086109
6.171814099466717
5.696116191920403
5.242920063072136
4.836189095593348
4.4805574417965115
4.160431967750686
3.8396680977153608
3.469445077311324
3.009271778688348
2.4596182371416138
1.8896892054727983
1.4205033406347403
1.1402198777348809
1.0299920317541535
1.004096934007755
1.0004539239536192
1.0000479972723018
1.0000049865407206
1.0000005113838137
1.0000000518577585
1.000000005206229
1.0000000005179712
1.0000000000511124
1.0000000000050058
1.0000000000004863
1.0000000000000466
1.0000000000000042
1.0000000000000004
1.0
1.0
1.0
1.0
1.0
1.0
1.0
1.0
7.651184176424115
7.402777118489435
6.811156848162895
6.1555445539297615
5.568317653967812
5.0575806224532425
4.623196292633092
4.259776098258623
3.9585431297743985
3.709856167214265
3.504795145030121
3.3358170524521045
3.196850427125708
3.083107900212074
2.9908026602931415
2.916877865638642
2.8587932473027515
2.814385831936717
2.7817910446830085
2.7593978811988045
2.7458178424263413
2.7398606673031116
2.740524865193166
2.7469911947543
2.7586016196701166
2.7748424171085206
2.795337235012318
2.8198225432627604
2.8481403982050426
2.880246459924059
2.916173025045012
2.9559624766330277
2.9995334847890867
3.0467852871428387
3.0978391167252153
3.1528803414784075
3.2119848387392995
3.2752400902469825
3.3427997266826157
3.4148532259059743
3.4916605473335083
3.573582315651378
3.661096378573877
3.7548092963562283
3.8554580445658546
3.963893531108873
4.081036240046738
4.2077983475225995
4.344967916985577
4.493050327685353
4.652061691697539
4.821266084529848
4.998849754928567
5.181526330601953
5.363926423907576
5.537295607218875
5.688374374339549
5.799435795599138
5.849575646019682
5.818499457402057
5.693796607934409
5.479851276185082
5.202411750628047
4.902455022831109
4.620290450326566
4.385038851544088
4.213674260509962
4.10875351526519
4.055666532285714
4.025003097274802
3.9809245679984233
3.8896370044257162
3.719749779798141
3.4401270878303714
3.028558604665893
2.4970812913222304
1.923011503699278
1.4391154158151143
1.1464147535200686
1.0310033746353326
1.0041357942165616
1.0004450666622264
1.000045797191633
1.0000046409534806
1.0000004651569283
1.0000000461793923
1.0000000045454862
1.0000000004439638
1.0000000000430567
1.0000000000041482
1.000000000000397
1.0000000000000377
1.0000000000000033
1.0000000000000002
1.0
1.0
1.0
1.0
1.0
1.0
1.0
7.256696678204971
6.926791299651721
6.181199939452259
5.4139674438165635
4.772620477807786
4.248297324099412
3.826873905353213
3.49218055335575
3.227611133430128
3.018188512269417
2.8515418797584977
2.7179873003417185
2.6101942935902076
2.5227097920815895
2.451475572699193
2.393420001049181
2.3461528675727843
2.3077613417211884
2.276685633909424
2.251645918893753
2.231599089772988
2.2157132331346148
2.2033532640893325
2.194065029514532
2.1875536030103246
2.183666754302421
2.1823770215527007
2.1837557851577016
2.18796567175011
2.1952463538073683
2.205812681638549
2.2197284891673355
2.237185994803139
2.2585957471486537
2.2843342039087013
2.314608482640736
2.34938799296223
2.3885966127737777
2.4321638338981524
2.4799960672083965
2.532087389153537
2.5885676669586446
2.6497179526877246
2.715994007315965
2.7880413661287804
2.866696056792458
2.9529552499160445
3.047900374345923
3.152558122998596
3.267680224775078
3.393420504786913
3.5288865264263336
3.6715045080202913
3.8157015872280415
3.9513552984924973
4.063244570618886
4.1324079736488795
4.141302605463612
4.082862199589471
3.9684959065575685
3.827517501481287
3.696285982097258
3.60561616807279
3.5739948788900575
3.604017059540017
3.681014203827691
3.7782041583606083
3.870840678623626
3.9454535487550104
3.995353911184752
4.014010590945485
3.991262361841228
3.910769853120274
3.748453651072147
3.47454423377144
3.0650619357744966
2.529240459624719
1.9442271275865477
1.4479402148074088
1.1478408330188559
1.030656077177916
1.003967822241937
1.0004150149846063
1.000041647705427
1.0000041252813348
1.0000004048663096
1.0000000394166983
1.0000000038097858
1.0000000003658094
1.0000000000349127
1.0000000000033136
1.0000000000003126
1.0000000000000289
1.0000000000000027
1.0000000000000002
1.0
1.0
1.0
1.0
1.0
1.0
6.719575659446651
6.307019470295041
5.432808919226483
4.6062322336815145
3.958616548970466
3.4597192777873382
3.0796885976384463
2.7919382490352653
2.5737702100647737
2.4070722461438723
2.2780775310769394
2.176618995916972
2.0953247550304557
2.0289096548449725
1.9735952136110098
1.9266602101684103
1.8861143539524718
1.8504775860855502
1.8186396037241455
1.789773672321579
1.7632844095961016
1.7387751576475887
1.7160243857718385
1.694962659819698
1.6756489254135416
1.6582488578375838
1.6430101104054904
1.6302341510849763
1.6202528450407871
1.6133811871122208
1.6098042815073537
1.6097160672616868
1.6136218840120118
1.621997256075836
1.6350481677972288
1.652825710466978
1.6751526661293294
1.701772721314656
1.7324061722433477
1.7667505929143075
1.804605763683659
1.8459198571504751
1.8908072188676563
1.9395507940961503
1.9926046125623607
2.0505911244737263
2.1142661168663044
2.1844285768130045
2.2617491468294233
2.3464816832940802
2.4380122154009958
2.5339487768950932
2.6287945146180527
2.712986800349328
2.77345548239217
2.797908230246082
2.782965278326598
2.7411578776147225
2.699642343081946
2.689735370035083
2.7343451178512783
2.8393501780631842
2.991655237699764
3.165950062948688
3.3394720903155193
3.5004010374363155
3.644010383242208
3.7680587760148994
3.870956515559227
3.950861838551103
4.0047355720166
4.027034736045362
4.007907335521893
3.9309966378021777
3.771756716186043
3.4992616251791095
3.087730296292133
2.545059218037756
1.9500730970958646
1.4460923667616474
1.1443485840892722
1.0289922813869032
1.0036180033162982
1.000368159852713
1.00003610952523
1.0000035032386738
1.0000003372799946
1.0000000322546447
1.0000000030657938
1.0000000002897795
1.0000000000272493
1.0000000000025497
1.0000000000002371
1.0000000000000218
1.0000000000000018
1.0
1.0
1.0
1.0
1.0
1.0
5.948813367672802
5.487143552204439
4.569554237269571
3.7716910086848565
3.1775261126250793
2.7411572650586375
2.423256543690388
2.1919587216659076
2.0223986514313497
1.896183730906618
1.8001259625046828
1.7249049873741276
1.6640003208850476
1.6129010523705323
1.5685242674863331
1.5287869745386842
1.4922981382017766
1.458145767304131
1.4257558210483734
1.3948017114866351
1.3651466942431374
1.33680520961958
1.3099130526128229
1.284700382990925
1.2614657651927939
1.240550738610216
1.2223130876020056
1.2070998566027378
1.1952211205465366
1.1869150874526162
1.1823420540665297
1.1818009535597176
1.1855631079072197
1.1935619562591318
1.2056060196337497
1.2214908912027473
1.2409164228469303
1.2635221367848675
1.2889456337491223
1.3168525905601605
1.3469986033659114
1.3792682819891566
1.4137009530942133
1.4504538042770079
1.489763483888624
1.5319295780479367
1.577249138718926
1.625885138669152
1.6776333928583527
1.7314585242786638
1.784798888979835
1.8328859449656043
1.8686848635796918
1.8852323072288353
1.881188094032321
1.8667274996053358
1.864018368329602
1.8991113865620148
1.9895183964763241
2.135612503882893
2.321922421298317
2.527848898557637
2.7381603061657662
2.9443390103290312
3.1410984780214077
3.3245409855824817
3.491647564495693
3.640140763689947
3.768329769755385
3.874782488926161
3.9577608378847535
4.0143322370412715
4.039039010648693
4.022018087205884
3.946673316282415
3.787810211228158
3.5133386743854724
3.0961895185506023
2.5443888525733107
1.9404992811856225
1.433738253901352
1.136248446494462
1.0262106974845542
1.0031362087124431
1.0003108872139659
1.0000298662878342
1.000002843615484
1.0000002690398717
1.0000000253124084
1.0000000023693505
1.0000000002207392
1.0000000000204752
1.0000000000018914
1.0000000000001736
1.0000000000000155
1.000000000000001
1.0
1.0
1.0
1.0
1.0
4.938192703561138
4.498494124991283
3.6665406242324377
2.9862799894947907
2.490169228321138
2.1345128732109058
1.8832552730069139
1.706127987431971
1.5796811862085156
1.4871690570399605
1.417063950123891
1.3615388167175952
1.315340480488035
1.275013832447327
1.2383606830340166
1.2040511410999666
1.1713436852640302
1.139888694619167
1.1095959613746307
1.080548616060927
1.0529477615220082
1.027074952172805
1.0032634801596183
0.9818734244232987
0.9632682420161416
0.9477919466322038
0.9357466305258337
0.9273716149066807
0.9228258901742071
0.9221751051014264
0.9254636745200422
0.9326674010192337
0.9435085371657436
0.9575123824422807
0.9741854184913532
0.9930820533020722
1.0137963849137204
1.035956593482049
1.0592427233149397
1.0833956042361446
1.1082131168183964
1.1335602717010005
1.1594010339434289
1.1857350894595882
1.2125002385573942
1.2395252836863904
1.2664144682283796
1.2923393263557987
1.3157631178714948
1.3341712567163044
1.344075445499438
1.3421803187201187
1.328456041052048
1.310069229758714
1.30286961104941
1.3270043760328691
1.3976348302129535
1.5173174399764122
1.6768772035383632
1.8634212590012535
2.0667610528508105
2.2799976598824325
2.4976850433105975
2.7147786354716685
2.9264670008378095
3.1283327301572257
3.316540386337006
3.4879690974685325
3.6402577495281547
3.7716821095797566
3.880824763719807
3.965993664347012
4.0243012591399765
4.0502779033740595
4.033901344565499
3.9581384199755703
3.796946622940748
3.517039122759631
3.090579235135765
2.527318109964404
1.9158088331267868
1.4115286719287186
1.1242011253102833
1.022626187881265
1.0025852107751643
1.0002500880609044
1.000023581519303
1.0000022075580102
1.0000002055900221
1.0000000190580867
1.0000000017591524
1.0000000001617377
1.0000000000148157
1.0000000000013525
1.0000000000001228
1.0000000000000107
1.0000000000000007
1.0
1.0
1.0
1.0
3.8773366012952337
3.5171020623134375
2.856385532485079
2.3303008813524833
1.939725310921546
1.6593475163040041
1.4650111512979533
1.3316800364028145
1.2386759739402209
1.1713979991636752
1.1201606241954734
1.0786961157483914
1.0430377746805213
1.0107742867320961
0.9805458696721733
0.9516906284056524
0.9239935432146715
0.8975128310444327
0.8724654880109948
0.8491555946161863
0.8279304589346396
0.8091525062551178
0.7931786378581361
0.7803423567786507
0.7709362906353724
0.7651940938376763
0.7632718818904801
0.7652309758628874
0.7710257664714959
0.7805017087357181
0.7934301023876433
0.8094086995487424
0.8278324821669067
0.8480513892828178
0.8694603331184174
0.8915283759333352
0.9137876661105631
0.9358393075865841
0.9573704044572046
0.9781497230546271
0.9979741229600516
1.0166132140431965
1.0338244040974334
1.0492842576706451
1.0624500575888427
1.0724807911514076
1.0781552583231173
1.077816320489584
1.0695191860476718
1.0517849441505565
1.0252567084502051
0.994883825130207
0.9711225956451661
0.9680710906215458
0.9981685585927278
1.0666359002469845
1.1706555238766359
1.3039114579204865
1.461009691477266
1.6382410586473508
1.832455431508126
2.040157011506152
2.257204449565202
2.4788952303467386
2.7002282742420767
2.916235144778582
3.1222974358985964
3.3143897193616243
3.4892536885971603
3.644453242515939
3.778240227431027
3.8892093523049365
3.975690515742077
4.034784874235898
4.060909910035901
4.043726569552973
3.9655490173048973
3.799263436720073
3.5103488717938554
3.070799634339978
2.493906767527515
1.8766035263172833
1.3805708554331169
1.1091561483274939
1.0186206492769365
1.0020274895435504
1.0001918206374882
1.0000177884471788
1.0000016401439482
1.000000150586782
1.000000013773023
1.0000000012552517
1.0000000001140241
1.0000000000103257
1.0000000000009321
1.0000000000000835
1.000000000000007
1.0000000000000004
1.0
1.0
1.0
3.058043153425377
2.7694225863452946
2.2492696215368237
1.8406936041508415
1.5318285170752497
1.3085798810989795
1.1562150642189157
1.0543894928913782
0.9849564621596909
0.9352044862903066
0.8970356713648411
0.8655076893951988
0.837725228445902
0.8121132647994389
0.7879411445034878
0.765001079278913
0.7433894956749952
0.7233630690430675
0.7052496557045064
0.6893972089663274
0.6761460232663252
0.6658128815446838
0.658679521269136
0.6549811862520757
0.6548932505319895
0.6585153836368359
0.665854148013506
0.6768067369552295
0.6911518172943313
0.7085604652172455
0.728597043657477
0.7506739074211298
0.7740990006194732
0.7981839193353749
0.8222927658465891
0.8458355668139239
0.8682550074391875
0.8890643196708974
0.9078607758038894
0.9242905857390278
0.9379843222616593
0.9484786273586872
0.9551863275478949
0.9573498498449885
0.9539788161465859
0.9439062938061435
0.9260333675024518
0.899872252852121
0.8664695528934874
0.8294905590801442
0.7957419366436737
0.7742519967066804
0.7736354875553262
0.7989113197711339
0.8503364483399594
0.925530192778788
1.022438158355474
1.1403237724374253
1.2791048897926844
1.4384680621035808
1.6173051178794453
1.8134574850255971
2.0236858061941154
2.243808421848134
2.468961668522976
2.693940239767474
2.913570028489131
3.12303632265131
3.3181522478080687
3.4955592545811385
3.6527745847108726
3.788043137368381
3.8999719361592433
3.986888550639943
4.045823326917646
4.0709725221432125
4.051508681739877
3.9688574793172533
3.79459554742067
3.4929552226547678
3.0365155744464976
2.444226948914796
1.8238332500477883
1.342410744134404
1.0922653141229286
1.014582884764869
1.0015139367740327
1.0001404248308132
1.0000128308638159
1.0000011670664122
1.0000001057877104
1.0000000095588264
1.0000000008611836
1.0000000000773726
1.0000000000069333
1.0000000000006195
1.0000000000000548
1.0000000000000049
1.0000000000000004
1.0
1.0
2.5859961562294957
2.322796186267184
1.8540440809705911
1.500012090793009
1.242378509826989
1.0585367771439802
0.9352120363924776
0.8547409299794138
0.8010397056946464
0.7629663277373635
0.7336861391914947
0.7092672264078956
0.6875904379102871
0.6676437482677479
0.6490758503305991
0.6319098351876643
0.6163603690954318
0.6027216953967817
0.5913042582341659
0.5824027243025232
0.576281665359046
0.5731687251153145
0.5732488732773597
0.5766565746593588
0.5834648333515515
0.5936714383104467
0.6071840278557241
0.6238074103219339
0.6432395301923739
0.6650898357034385
0.688857228036053
0.7139000745773967
0.7394816540967682
0.7648301053304025
0.7891798487182152
0.8117576824974057
0.8318191735059655
0.8487170056861941
0.8618788209861674
0.8707569570423896
0.8747811845948053
0.8733306941672282
0.8657517632070715
0.851453246223942
0.8301229098690496
0.8021050281697857
0.768876906405048
0.7334212101124609
0.7002225824770171
0.6746518252531277
0.6616913013080354
0.6644325479080149
0.6834178229134059
0.717650107520394
0.7663891128488335
0.8300820117025383
0.9101578496473435
1.008425254351427
1.1265267117966227
1.2655191812330842
1.4255612797980355
1.6057032099046613
1.8037916079848837
2.016502077407814
2.239506124189905
2.4677556438968398
2.695851016034491
2.9184308015553246
3.130511857057746
3.3277880532799182
3.50684111240904
3.665172800522903
3.8010400262918376
3.9130629911051065
3.9995403329142807
4.0573650207418215
4.080391931991889
4.057116086562498
3.967817707422367
3.78251874813686
3.4642556054002074
2.9871975654039877
2.378452830237981
1.7588708681037921
1.2989888591928231
1.0747684247879892
1.0108504779985181
1.0010773806660156
1.0000982215815983
1.0000088577526713
1.0000007959551998
1.0000000713232284
1.0000000063744867
1.0000000005683294
1.0000000000505538
1.0000000000044866
1.0000000000003972
1.000000000000035
1.0000000000000029
1.0000000000000002
1.0
2.333005867586767
2.0675259937225245
1.6000397783031017
1.2647136222635433
1.037815488744576
0.8815013683475692
0.7786247268590826
0.7126988231160489
0.6694536204237418
0.6391383243128709
0.6159371094444219