# vtk DataFile Version 3.0 
shock_diffraction_time_series_428_.vtk
ASCII
DATASET UNSTRUCTURED_GRID
POINTS         10201 double
0.0 0.0 0.0
0.01 0.0 0.0
0.02 0.0 0.0
0.03 0.0 0.0
0.04 0.0 0.0
0.05 0.0 0.0
0.06 0.0 0.0
0.07 0.0 0.0
0.08 0.0 0.0
0.09 0.0 0.0
0.1 0.0 0.0
0.11 0.0 0.0
0.12 0.0 0.0
0.13 0.0 0.0
0.14 0.0 0.0
0.15 0.0 0.0
0.16 0.0 0.0
0.17 0.0 0.0
0.18 0.0 0.0
0.19 0.0 0.0
0.2 0.0 0.0
0.21 0.0 0.0
0.22 0.0 0.0
0.23 0.0 0.0
0.24 0.0 0.0
0.25 0.0 0.0
0.26 0.0 0.0
0.27 0.0 0.0
0.28 0.0 0.0
0.29 0.0 0.0
0.3 0.0 0.0
0.31 0.0 0.0
0.32 0.0 0.0
0.33 0.0 0.0
0.34 0.0 0.0
0.35000000000000003 0.0 0.0
0.36 0.0 0.0
0.37 0.0 0.0
0.38 0.0 0.0
0.39 0.0 0.0
0.4 0.0 0.0
0.41000000000000003 0.0 0.0
0.42 0.0 0.0
0.43 0.0 0.0
0.44 0.0 0.0
0.45 0.0 0.0
0.46 0.0 0.0
0.47000000000000003 0.0 0.0
0.48 0.0 0.0
0.49 0.0 0.0
0.5 0.0 0.0
0.51 0.0 0.0
0.52 0.0 0.0
0.53 0.0 0.0
0.54 0.0 0.0
0.55 0.0 0.0
0.56 0.0 0.0
0.5700000000000001 0.0 0.0
0.58 0.0 0.0
0.59 0.0 0.0
0.6 0.0 0.0
0.61 0.0 0.0
0.62 0.0 0.0
0.63 0.0 0.0
0.64 0.0 0.0
0.65 0.0 0.0
0.66 0.0 0.0
0.67 0.0 0.0
0.68 0.0 0.0
0.6900000000000001 0.0 0.0
0.7000000000000001 0.0 0.0
0.71 0.0 0.0
0.72 0.0 0.0
0.73 0.0 0.0
0.74 0.0 0.0
0.75 0.0 0.0
0.76 0.0 0.0
0.77 0.0 0.0
0.78 0.0 0.0
0.79 0.0 0.0
0.8 0.0 0.0
0.81 0.0 0.0
0.8200000000000001 0.0 0.0
0.8300000000000001 0.0 0.0
0.84 0.0 0.0
0.85 0.0 0.0
0.86 0.0 0.0
0.87 0.0 0.0
0.88 0.0 0.0
0.89 0.0 0.0
0.9 0.0 0.0
0.91 0.0 0.0
0.92 0.0 0.0
0.93 0.0 0.0
0.9400000000000001 0.0 0.0
0.9500000000000001 0.0 0.0
0.96 0.0 0.0
0.97 0.0 0.0
0.98 0.0 0.0
0.99 0.0 0.0
1.0 0.0 0.0
0.0 0.01 0.0
0.01 0.01 0.0
0.02 0.01 0.0
0.03 0.01 0.0
0.04 0.01 0.0
0.05 0.01 0.0
0.06 0.01 0.0
0.07 0.01 0.0
0.08 0.01 0.0
0.09 0.01 0.0
0.1 0.01 0.0
0.11 0.01 0.0
0.12 0.01 0.0
0.13 0.01 0.0
0.14 0.01 0.0
0.15 0.01 0.0
0.16 0.01 0.0
0.17 0.01 0.0
0.18 0.01 0.0
0.19 0.01 0.0
0.2 0.01 0.0
0.21 0.01 0.0
0.22 0.01 0.0
0.23 0.01 0.0
0.24 0.01 0.0
0.25 0.01 0.0
0.26 0.01 0.0
0.27 0.01 0.0
0.28 0.01 0.0
0.29 0.01 0.0
0.3 0.01 0.0
0.31 0.01 0.0
0.32 0.01 0.0
0.33 0.01 0.0
0.34 0.01 0.0
0.35000000000000003 0.01 0.0
0.36 0.01 0.0
0.37 0.01 0.0
0.38 0.01 0.0
0.39 0.01 0.0
0.4 0.01 0.0
0.41000000000000003 0.01 0.0
0.42 0.01 0.0
0.43 0.01 0.0
0.44 0.01 0.0
0.45 0.01 0.0
0.46 0.01 0.0
0.47000000000000003 0.01 0.0
0.48 0.01 0.0
0.49 0.01 0.0
0.5 0.01 0.0
0.51 0.01 0.0
0.52 0.01 0.0
0.53 0.01 0.0
0.54 0.01 0.0
0.55 0.01 0.0
0.56 0.01 0.0
0.5700000000000001 0.01 0.0
0.58 0.01 0.0
0.59 0.01 0.0
0.6 0.01 0.0
0.61 0.01 0.0
0.62 0.01 0.0
0.63 0.01 0.0
0.64 0.01 0.0
0.65 0.01 0.0
0.66 0.01 0.0
0.67 0.01 0.0
0.68 0.01 0.0
0.6900000000000001 0.01 0.0
0.7000000000000001 0.01 0.0
0.71 0.01 0.0
0.72 0.01 0.0
0.73 0.01 0.0
0.74 0.01 0.0
0.75 0.01 0.0
0.76 0.01 0.0
0.77 0.01 0.0
0.78 0.01 0.0
0.79 0.01 0.0
0.8 0.01 0.0
0.81 0.01 0.0
0.8200000000000001 0.01 0.0
0.8300000000000001 0.01 0.0
0.84 0.01 0.0
0.85 0.01 0.0
0.86 0.01 0.0
0.87 0.01 0.0
0.88 0.01 0.0
0.89 0.01 0.0
0.9 0.01 0.0
0.91 0.01 0.0
0.92 0.01 0.0
0.93 0.01 0.0
0.9400000000000001 0.01 0.0
0.9500000000000001 0.01 0.0
0.96 0.01 0.0
0.97 0.01 0.0
0.98 0.01 0.0
0.99 0.01 0.0
1.0 0.01 0.0
0.0 0.02 0.0
0.01 0.02 0.0
0.02 0.02 0.0
0.03 0.02 0.0
0.04 0.02 0.0
0.05 0.02 0.0
0.06 0.02 0.0
0.07 0.02 0.0
0.08 0.02 0.0
0.09 0.02 0.0
0.1 0.02 0.0
0.11 0.02 0.0
0.12 0.02 0.0
0.13 0.02 0.0
0.14 0.02 0.0
0.15 0.02 0.0
0.16 0.02 0.0
0.17 0.02 0.0
0.18 0.02 0.0
0.19 0.02 0.0
0.2 0.02 0.0
0.21 0.02 0.0
0.22 0.02 0.0
0.23 0.02 0.0
0.24 0.02 0.0
0.25 0.02 0.0
0.26 0.02 0.0
0.27 0.02 0.0
0.28 0.02 0.0
0.29 0.02 0.0
0.3 0.02 0.0
0.31 0.02 0.0
0.32 0.02 0.0
0.33 0.02 0.0
0.34 0.02 0.0
0.35000000000000003 0.02 0.0
0.36 0.02 0.0
0.37 0.02 0.0
0.38 0.02 0.0
0.39 0.02 0.0
0.4 0.02 0.0
0.41000000000000003 0.02 0.0
0.42 0.02 0.0
0.43 0.02 0.0
0.44 0.02 0.0
0.45 0.02 0.0
0.46 0.02 0.0
0.47000000000000003 0.02 0.0
0.48 0.02 0.0
0.49 0.02 0.0
0.5 0.02 0.0
0.51 0.02 0.0
0.52 0.02 0.0
0.53 0.02 0.0
0.54 0.02 0.0
0.55 0.02 0.0
0.56 0.02 0.0
0.5700000000000001 0.02 0.0
0.58 0.02 0.0
0.59 0.02 0.0
0.6 0.02 0.0
0.61 0.02 0.0
0.62 0.02 0.0
0.63 0.02 0.0
0.64 0.02 0.0
0.65 0.02 0.0
0.66 0.02 0.0
0.67 0.02 0.0
0.68 0.02 0.0
0.6900000000000001 0.02 0.0
0.7000000000000001 0.02 0.0
0.71 0.02 0.0
0.72 0.02 0.0
0.73 0.02 0.0
0.74 0.02 0.0
0.75 0.02 0.0
0.76 0.02 0.0
0.77 0.02 0.0
0.78 0.02 0.0
0.79 0.02 0.0
0.8 0.02 0.0
0.81 0.02 0.0
0.8200000000000001 0.02 0.0
0.8300000000000001 0.02 0.0
0.84 0.02 0.0
0.85 0.02 0.0
0.86 0.02 0.0
0.87 0.02 0.0
0.88 0.02 0.0
0.89 0.02 0.0
0.9 0.02 0.0
0.91 0.02 0.0
0.92 0.02 0.0
0.93 0.02 0.0
0.9400000000000001 0.02 0.0
0.9500000000000001 0.02 0.0
0.96 0.02 0.0
0.97 0.02 0.0
0.98 0.02 0.0
0.99 0.02 0.0
1.0 0.02 0.0
0.0 0.03 0.0
0.01 0.03 0.0
0.02 0.03 0.0
0.03 0.03 0.0
0.04 0.03 0.0
0.05 0.03 0.0
0.06 0.03 0.0
0.07 0.03 0.0
0.08 0.03 0.0
0.09 0.03 0.0
0.1 0.03 0.0
0.11 0.03 0.0
0.12 0.03 0.0
0.13 0.03 0.0
0.14 0.03 0.0
0.15 0.03 0.0
0.16 0.03 0.0
0.17 0.03 0.0
0.18 0.03 0.0
0.19 0.03 0.0
0.2 0.03 0.0
0.21 0.03 0.0
0.22 0.03 0.0
0.23 0.03 0.0
0.24 0.03 0.0
0.25 0.03 0.0
0.26 0.03 0.0
0.27 0.03 0.0
0.28 0.03 0.0
0.29 0.03 0.0
0.3 0.03 0.0
0.31 0.03 0.0
0.32 0.03 0.0
0.33 0.03 0.0
0.34 0.03 0.0
0.35000000000000003 0.03 0.0
0.36 0.03 0.0
0.37 0.03 0.0
0.38 0.03 0.0
0.39 0.03 0.0
0.4 0.03 0.0
0.41000000000000003 0.03 0.0
0.42 0.03 0.0
0.43 0.03 0.0
0.44 0.03 0.0
0.45 0.03 0.0
0.46 0.03 0.0
0.47000000000000003 0.03 0.0
0.48 0.03 0.0
0.49 0.03 0.0
0.5 0.03 0.0
0.51 0.03 0.0
0.52 0.03 0.0
0.53 0.03 0.0
0.54 0.03 0.0
0.55 0.03 0.0
0.56 0.03 0.0
0.5700000000000001 0.03 0.0
0.58 0.03 0.0
0.59 0.03 0.0
0.6 0.03 0.0
0.61 0.03 0.0
0.62 0.03 0.0
0.63 0.03 0.0
0.64 0.03 0.0
0.65 0.03 0.0
0.66 0.03 0.0
0.67 0.03 0.0
0.68 0.03 0.0
0.6900000000000001 0.03 0.0
0.7000000000000001 0.03 0.0
0.71 0.03 0.0
0.72 0.03 0.0
0.73 0.03 0.0
0.74 0.03 0.0
0.75 0.03 0.0
0.76 0.03 0.0
0.77 0.03 0.0
0.78 0.03 0.0
0.79 0.03 0.0
0.8 0.03 0.0
0.81 0.03 0.0
0.8200000000000001 0.03 0.0
0.8300000000000001 0.03 0.0
0.84 0.03 0.0
0.85 0.03 0.0
0.86 0.03 0.0
0.87 0.03 0.0
0.88 0.03 0.0
0.89 0.03 0.0
0.9 0.03 0.0
0.91 0.03 0.0
0.92 0.03 0.0
0.93 0.03 0.0
0.9400000000000001 0.03 0.0
0.9500000000000001 0.03 0.0
0.96 0.03 0.0
0.97 0.03 0.0
0.98 0.03 0.0
0.99 0.03 0.0
1.0 0.03 0.0
0.0 0.04 0.0
0.01 0.04 0.0
0.02 0.04 0.0
0.03 0.04 0.0
0.04 0.04 0.0
0.05 0.04 0.0
0.06 0.04 0.0
0.07 0.04 0.0
0.08 0.04 0.0
0.09 0.04 0.0
0.1 0.04 0.0
0.11 0.04 0.0
0.12 0.04 0.0
0.13 0.04 0.0
0.14 0.04 0.0
0.15 0.04 0.0
0.16 0.04 0.0
0.17 0.04 0.0
0.18 0.04 0.0
0.19 0.04 0.0
0.2 0.04 0.0
0.21 0.04 0.0
0.22 0.04 0.0
0.23 0.04 0.0
0.24 0.04 0.0
0.25 0.04 0.0
0.26 0.04 0.0
0.27 0.04 0.0
0.28 0.04 0.0
0.29 0.04 0.0
0.3 0.04 0.0
0.31 0.04 0.0
0.32 0.04 0.0
0.33 0.04 0.0
0.34 0.04 0.0
0.35000000000000003 0.04 0.0
0.36 0.04 0.0
0.37 0.04 0.0
0.38 0.04 0.0
0.39 0.04 0.0
0.4 0.04 0.0
0.41000000000000003 0.04 0.0
0.42 0.04 0.0
0.43 0.04 0.0
0.44 0.04 0.0
0.45 0.04 0.0
0.46 0.04 0.0
0.47000000000000003 0.04 0.0
0.48 0.04 0.0
0.49 0.04 0.0
0.5 0.04 0.0
0.51 0.04 0.0
0.52 0.04 0.0
0.53 0.04 0.0
0.54 0.04 0.0
0.55 0.04 0.0
0.56 0.04 0.0
0.5700000000000001 0.04 0.0
0.58 0.04 0.0
0.59 0.04 0.0
0.6 0.04 0.0
0.61 0.04 0.0
0.62 0.04 0.0
0.63 0.04 0.0
0.64 0.04 0.0
0.65 0.04 0.0
0.66 0.04 0.0
0.67 0.04 0.0
0.68 0.04 0.0
0.6900000000000001 0.04 0.0
0.7000000000000001 0.04 0.0
0.71 0.04 0.0
0.72 0.04 0.0
0.73 0.04 0.0
0.74 0.04 0.0
0.75 0.04 0.0
0.76 0.04 0.0
0.77 0.04 0.0
0.78 0.04 0.0
0.79 0.04 0.0
0.8 0.04 0.0
0.81 0.04 0.0
0.8200000000000001 0.04 0.0
0.8300000000000001 0.04 0.0
0.84 0.04 0.0
0.85 0.04 0.0
0.86 0.04 0.0
0.87 0.04 0.0
0.88 0.04 0.0
0.89 0.04 0.0
0.9 0.04 0.0
0.91 0.04 0.0
0.92 0.04 0.0
0.93 0.04 0.0
0.9400000000000001 0.04 0.0
0.9500000000000001 0.04 0.0
0.96 0.04 0.0
0.97 0.04 0.0
0.98 0.04 0.0
0.99 0.04 0.0
1.0 0.04 0.0
0.0 0.05 0.0
0.01 0.05 0.0
0.02 0.05 0.0
0.03 0.05 0.0
0.04 0.05 0.0
0.05 0.05 0.0
0.06 0.05 0.0
0.07 0.05 0.0
0.08 0.05 0.0
0.09 0.05 0.0
0.1 0.05 0.0
0.11 0.05 0.0
0.12 0.05 0.0
0.13 0.05 0.0
0.14 0.05 0.0
0.15 0.05 0.0
0.16 0.05 0.0
0.17 0.05 0.0
0.18 0.05 0.0
0.19 0.05 0.0
0.2 0.05 0.0
0.21 0.05 0.0
0.22 0.05 0.0
0.23 0.05 0.0
0.24 0.05 0.0
0.25 0.05 0.0
0.26 0.05 0.0
0.27 0.05 0.0
0.28 0.05 0.0
0.29 0.05 0.0
0.3 0.05 0.0
0.31 0.05 0.0
0.32 0.05 0.0
0.33 0.05 0.0
0.34 0.05 0.0
0.35000000000000003 0.05 0.0
0.36 0.05 0.0
0.37 0.05 0.0
0.38 0.05 0.0
0.39 0.05 0.0
0.4 0.05 0.0
0.41000000000000003 0.05 0.0
0.42 0.05 0.0
0.43 0.05 0.0
0.44 0.05 0.0
0.45 0.05 0.0
0.46 0.05 0.0
0.47000000000000003 0.05 0.0
0.48 0.05 0.0
0.49 0.05 0.0
0.5 0.05 0.0
0.51 0.05 0.0
0.52 0.05 0.0
0.53 0.05 0.0
0.54 0.05 0.0
0.55 0.05 0.0
0.56 0.05 0.0
0.5700000000000001 0.05 0.0
0.58 0.05 0.0
0.59 0.05 0.0
0.6 0.05 0.0
0.61 0.05 0.0
0.62 0.05 0.0
0.63 0.05 0.0
0.64 0.05 0.0
0.65 0.05 0.0
0.66 0.05 0.0
0.67 0.05 0.0
0.68 0.05 0.0
0.6900000000000001 0.05 0.0
0.7000000000000001 0.05 0.0
0.71 0.05 0.0
0.72 0.05 0.0
0.73 0.05 0.0
0.74 0.05 0.0
0.75 0.05 0.0
0.76 0.05 0.0
0.77 0.05 0.0
0.78 0.05 0.0
0.79 0.05 0.0
0.8 0.05 0.0
0.81 0.05 0.0
0.8200000000000001 0.05 0.0
0.8300000000000001 0.05 0.0
0.84 0.05 0.0
0.85 0.05 0.0
0.86 0.05 0.0
0.87 0.05 0.0
0.88 0.05 0.0
0.89 0.05 0.0
0.9 0.05 0.0
0.91 0.05 0.0
0.92 0.05 0.0
0.93 0.05 0.0
0.9400000000000001 0.05 0.0
0.9500000000000001 0.05 0.0
0.96 0.05 0.0
0.97 0.05 0.0
0.98 0.05 0.0
0.99 0.05 0.0
1.0 0.05 0.0
0.0 0.06 0.0
0.01 0.06 0.0
0.02 0.06 0.0
0.03 0.06 0.0
0.04 0.06 0.0
0.05 0.06 0.0
0.06 0.06 0.0
0.07 0.06 0.0
0.08 0.06 0.0
0.09 0.06 0.0
0.1 0.06 0.0
0.11 0.06 0.0
0.12 0.06 0.0
0.13 0.06 0.0
0.14 0.06 0.0
0.15 0.06 0.0
0.16 0.06 0.0
0.17 0.06 0.0
0.18 0.06 0.0
0.19 0.06 0.0
0.2 0.06 0.0
0.21 0.06 0.0
0.22 0.06 0.0
0.23 0.06 0.0
0.24 0.06 0.0
0.25 0.06 0.0
0.26 0.06 0.0
0.27 0.06 0.0
0.28 0.06 0.0
0.29 0.06 0.0
0.3 0.06 0.0
0.31 0.06 0.0
0.32 0.06 0.0
0.33 0.06 0.0
0.34 0.06 0.0
0.35000000000000003 0.06 0.0
0.36 0.06 0.0
0.37 0.06 0.0
0.38 0.06 0.0
0.39 0.06 0.0
0.4 0.06 0.0
0.41000000000000003 0.06 0.0
0.42 0.06 0.0
0.43 0.06 0.0
0.44 0.06 0.0
0.45 0.06 0.0
0.46 0.06 0.0
[...]
POINT_DATA  10201
FIELD  FlowField  4
Density    1 10201  double
3.6941725731593213
3.6242641287087385
3.4685865964273264
3.291712381253995
3.1074013122377746
2.9221506940714157
2.741820738307274
2.5707642636509336
2.411664649704099
2.2657835236998163
2.1334123403783973
2.0142637757512363
1.9077572261716582
1.8132046491873905
1.7299194028283043
1.6572727742916118
1.5947174639108614
1.54179285706507
1.4981243640391932
1.4634205082527711
1.437467801849063
1.4201259716500587
1.4113248708719308
1.4110635331230674
1.4194105849976741
1.4364899517630247
1.4624473182706876
1.497413215093271
1.541463469674259
1.5945758302699302
1.6565935029490284
1.7272668629377907
1.806363881770535
1.893676741115966
1.9889485172866048
2.0918201200156865
2.20177850859982
2.31811552330576
2.4399015209890638
2.5659752376778058
2.694952847517056
2.825254404318772
2.9551430473324767
3.0827714817536416
3.206228108403072
3.323571761323673
3.4328403603978885
3.532014878710224
3.618915852863587
3.6910049862448417
3.7450600210640514
3.7766903383423824
3.7796740228050476
3.7451513855160945
3.660862822447584
3.510984379121154
3.277834421419046
2.94779268693995
2.524064472771866
2.044733392963183
1.5906300816570544
1.2548868098318247
1.0774968949345978
1.0161632539624335
1.0026142749129285
1.0003821058342692
1.0000531061324092
1.000007099657521
1.0000009173576752
1.0000001149857596
1.0000000140271086
1.0000000016702235
1.0000000001946159
1.0000000000222409
1.0000000000024971
1.000000000000275
1.000000000000029
1.0000000000000027
1.0
1.0
1.0
1.0
1.0
1.0
1.0
1.0
1.0
1.0
1.0
1.0
1.0
1.0
1.0
1.0
1.0
1.0
1.0
1.0
1.0
1.0
1.0
3.655492445662998
3.5804601715573527
3.4129718349046323
3.2231313371876227
3.027186967897458
2.8322625309804614
2.644221784499647
2.4671848010211317
2.3035687007531407
2.1543658671601253
2.0196258432022045
1.8988580714594414
1.7913148658865157
1.6961697531422635
1.6126187280212756
1.539930804466052
1.4774673774441651
1.4246852958586445
1.3811343191829435
1.346452330796429
1.3203595243771034
1.3026538364932945
1.2932085762878849
1.2919723909867593
1.2989708222446084
1.3143010797590085
1.338115871975964
1.3705931269092049
1.4118909452065038
1.4620996383496343
1.5211989091536748
1.5890564709712498
1.6654904252695757
1.7503480359132553
1.84349509309458
1.9447317943526357
2.053723316802143
2.1699441767069274
2.2926356666561096
2.4207804556367645
2.553100033433178
2.6880742551348504
2.8239763963247113
2.9589201604655435
3.0909134097057844
3.217909329409468
3.3378418649729356
3.4486282489094027
3.548117363536685
3.6339583167433624
3.703359104088719
3.7527021690291553
3.7769879046506523
3.7691060094291653
3.7190258342515126
3.6132343538986547
3.4352516375240176
3.168923010136491
2.8069717733010613
2.365728782881317
1.8986166407393021
1.4886519025210667
1.2063827178108133
1.0632021896920447
1.0133873630110215
1.0021188708205466
1.0002966784285516
1.000039444684946
1.000005056294336
1.0000006281967568
1.0000000759217658
1.0000000089536099
1.0000000010331709
1.0000000001169262
1.0000000000130043
1.0000000000014229
1.0000000000001528
1.0000000000000158
1.0000000000000013
1.0
1.0
1.0
1.0
1.0
1.0
1.0
1.0
1.0
1.0
1.0
1.0
1.0
1.0
1.0
1.0
1.0
1.0
1.0
1.0
1.0
1.0
3.5759919324194263
3.490057011545845
3.2975676490145576
3.0806124247357047
2.8608375131514023
2.6466717716018167
2.4438808723785685
2.255967975195585
2.084674470192691
1.930339023450663
1.7924385428795673
1.6700124704436377
1.5619369321352319
1.4670830620440207
1.384397985877312
1.3129390095964995
1.2518820570194906
1.2005182109626393
1.1582459542461934
1.1245622915930098
1.0990551579002543
1.081398659738623
1.0713514736460534
1.068758114335228
1.0735523851479856
1.0857623750510907
1.1055147315808542
1.1330266773432265
1.1685782258341182
1.2124586175438117
1.2649037454135952
1.3260472391631952
1.3959055662911677
1.4744473303009573
1.5617010086242673
1.657757899230451
1.762656968353741
1.876271174902194
1.9982350354563447
2.1278923020419382
2.264267596005758
2.4060619740733635
2.5516686570084794
2.6992106870839017
2.8465998016881393
2.9916080996749974
3.1319434825463146
3.2653152159175702
3.389470988578886
3.5021828145651464
3.601154862096129
3.683821379872517
3.7469976202621758
3.7863450816444577
3.795624798665285
3.7657751895052245
3.684027105751875
3.5337168929487213
3.2963903122813596
2.9589719575980773
2.5281270477461915
2.0473731096677485
1.59856745015796
1.2673389671434636
1.0866302627190754
1.019121728746041
1.0030030143547652
1.0004043645906304
1.0000515275716424
1.0000063447323477
1.0000007593421472
1.0000000886481042
1.0000000101246196
1.00000000113409
1.0000000001248532
1.0000000000135336
1.000000000001446
1.0000000000001519
1.0000000000000155
1.0000000000000013
1.0
1.0
1.0
1.0
1.0
1.0
1.0
1.0
1.0
1.0
1.0
1.0
1.0
1.0
1.0
1.0
1.0
1.0
1.0
1.0
1.0
3.4917829720703475
3.3936917974320515
3.173695261738586
2.927772665384837
2.6837307502507395
2.451273737155745
2.2357375674357507
2.0396487693707375
1.8637727558233104
1.707571428950872
1.5697972050183255
1.4489217217673367
1.3433844935979065
1.2517193177765211
1.1726067097836421
1.1048862493945006
1.0475500733743508
0.9997292242484013
0.9606785268215514
0.9297629686147744
0.9064474440833336
0.8902905286569992
0.8809421460823095
0.8781446125208242
0.8817363809562094
0.8916579848241992
0.90795976763117
0.9308110265179271
0.9605039944152918
0.9974330530991415
1.042038596637281
1.094726871223016
1.155808356594752
1.2254780561818193
1.3038894779336854
1.3912830542343488
1.48800918610047
1.594383584643337
1.7105209764308795
1.836248531040888
1.9710468183749552
2.114016488721668
2.2638689269968557
2.4189383797587984
2.577218080161082
2.7364221621964058
2.8940731105605044
3.047603410568129
3.194452115970834
3.3321369652138264
3.458277795995665
3.570542526893945
3.6664821825168237
3.7432155958662974
3.7969176099697743
3.82206931072637
3.810464125840299
3.750099819575006
3.6244653154409634
3.413635932261053
3.099940137301862
2.6812826208100597
2.1909994995448177
1.7081980808647017
1.330848409870606
1.112333461766197
1.025740684125474
1.0040323670146067
1.0005235909101562
1.0000640576894286
1.0000075901867262
1.0000008767033985
1.0000000990526494
1.0000000109762182
1.0000000011955859
1.000000000128253
1.0000000000135705
1.0000000000014178
1.0000000000001459
1.0000000000000147
1.000000000000001
1.0
1.0
1.0
1.0
1.0
1.0
1.0
1.0
1.0
1.0
1.0
1.0
1.0
1.0
1.0
1.0
1.0
1.0
1.0
1.0
3.402601969556035
3.2911543187458245
3.04155406368143
2.765770823629679
2.4983337194451036
2.2498767494925733
2.024725024414544
1.8239901108721035
1.6471748704002247
1.4926792352026486
1.358427692734383
1.2422716340729905
1.1421910264280692
1.0563761686359643
0.98324513631667
0.9214312400363968
0.8697592678167718
0.8272198877170944
0.792946482715454
0.7661962955263465
0.7463365558257625
0.7328354699399299
0.7252575485414372
0.7232625478257111
0.7266073402178646
0.7351503835184804
0.7488588801497479
0.7678189295671471
0.7922487597361495
0.822513758126605
0.8591183299955538
0.9026499615447683
0.9536809440800894
1.0127002718545208
1.0801048206052706
1.1562605064355944
1.2416344270374795
1.3368507184804437
1.4425238033489847
1.559037123535091
1.6864346541656174
1.8243616378243397
1.9720299866043909
2.1281970127805936
2.2911639855622905
2.458808309242808
2.6286520794979875
2.797961607835239
2.9638691755834348
3.1235020077768603
3.274092254680396
3.41303913969143
3.5378935371187024
3.6462301999440876
3.735365581894571
3.8018723889852986
3.8408364205320016
3.844822000575134
3.802610946952286
3.698096181947132
3.510539702546205
3.2188795815584563
2.813911615104256
2.3195627874188194
1.8102675025969066
1.392539485634356
1.1383751086241622
1.0326975447272275
1.0051183594815594
1.0006423977796852
1.000075596191568
1.0000086361084095
1.0000009645634282
1.0000001056668797
1.0000000113808398
1.0000000012074879
1.000000000126407
1.0000000000130742
1.0000000000013372
1.000000000000135
1.000000000000013
1.000000000000001
1.0
1.0
1.0
1.0
1.0
1.0
1.0
1.0
1.0
1.0
1.0
1.0
1.0
1.0
1.0
1.0
1.0
1.0
1.0
3.3084397641977246
3.1824693507998694
2.9015947960718473
2.596073225590689
2.307390061509533
2.046374683327834
1.8155588996961645
1.614201876550129
1.4403004326922342
1.2910656727863972
1.1635455238976327
1.0549628947949234
0.9628496924470435
0.8850733655459442
0.8198147115093903
0.7655285196022781
0.7209021683037276
0.6848184668105326
0.6563247339885263
0.6346082873823435
0.6189778822156369
0.608850466376718
0.6037425242988883
0.6032652014899229
0.6071225553009795
0.6151127657942996
0.6271327022766997
0.6431864874859923
0.6633984578852496
0.6880303701214479
0.7175022743080672
0.7524027918737309
0.7934370877273987
0.8413148735688281
0.8966884294319919
0.9601641245018471
1.032335584624267
1.1139074084615677
1.2057859504655941
1.308886370922173
1.4238660620913253
1.5510071082843828
1.6901593053717534
1.8406883043979239
2.0014332207551706
2.170693403303112
2.3462534498563885
2.525452270288891
2.7052965597272856
2.8826058134759758
3.054169187069351
3.216891396690131
3.367896385641008
3.5045519513423162
3.6243784127024914
3.72479925006137
3.802681145810059
3.8536017738804103
3.870791215070654
3.8437640781601186
3.756921493256567
3.5891552697172324
3.3169997614054187
2.9256104093207114
2.430599236325233
1.9009544319214684
1.4489353181817337
1.1627895182915078
1.0393276689024469
1.0061406189799669
1.000746241581775
1.0000846413703994
1.0000093424813994
1.000001011088509
1.0000001076078475
1.0000000112854652
1.0000000011682526
1.0000000001195348
1.0000000000121023
1.0000000000012133
1.0000000000001203
1.0000000000000115
1.0000000000000009
1.0
1.0
1.0
1.0
1.0
1.0
1.0
1.0
1.0
1.0
1.0
1.0
1.0
1.0
1.0
1.0
1.0
1.0
3.208688537450104
3.0671572505911446
2.754000919860696
2.420116504417815
2.113693456876625
1.8445768425839713
1.6126138043533533
1.4148686337084033
1.2476494888026708
1.1069283315824263
0.9888949636002407
0.8901871707968945
0.807936528319896
0.7397329068189613
0.6835619404371391
0.6377405623719632
0.6008602081042569
0.571739797288231
0.5493875246223203
0.5329698596536747
0.5217866304676759
0.5152516072475862
0.5128780855926965
0.5142687734314392
0.5191093450919873
0.527165566965953
0.5382845843628067
0.5524012269928577
0.5695498332824921
0.5898813850849832
0.6136852733994828
0.6414150628709228
0.6737102957815331
0.7113483748150432
0.7551248040554801
0.80582909171938
0.8642745308455841
0.9312763893290313
1.0077780592812486
1.09497122287762
1.1940628733418452
1.3059768164826298
1.4312497578865413
1.5699729359967127
1.721710969786703
1.8854298645736494
2.059462260069624
2.2415243530888507
2.4287885983418698
2.618007457255283
2.805679634720068
2.988239333500233
3.1622381314112755
3.3244866668392037
3.472119554387684
3.602541380965201
3.713208240679551
3.8011928998004354
3.8624605318680416
3.890792495708593
3.8763424122700396
3.8040153730182262
3.6525610471519587
3.3967816419684884
3.0174124336269026
2.523087637194708
1.9775593892617787
1.4970984412427903
1.1837027123876218
1.0449353957498686
1.006965334165014
1.000820360865269
1.0000898808285648
1.0000096074762133
1.0000010097190806
1.0000001046113416
1.0000000107027494
1.000000001082807
1.000000000108454
1.0000000000107643
1.0000000000010592
1.000000000000103
1.0000000000000093
1.0000000000000007
1.0
1.0
1.0
1.0
1.0
1.0
1.0
1.0
1.0
1.0
1.0
1.0
1.0
1.0
1.0
1.0
1.0
3.1023605136125973
2.944492849093574
2.5990077776199128
2.239620594440442
1.9202682539409712
1.648231600811493
1.4198461407876108
1.229794389523608
1.0726186464971033
0.9430978581917782
0.8366472664496007
0.7494042632034665
0.6781738316027072
0.6203302892449216
0.573718259960774
0.5365680263514132
0.5074273200574825
0.48510628374007847
0.468631415744542
0.4572058253460966
0.4501751941567028
0.44699993509697844
0.4472337557388582
0.4505079777001452
0.4565206577768621
0.4650301574104655
0.4758537322242817
0.4888720825102238
0.5040403139624003
0.5214047996750749
0.5411248386802648
0.5634982757982726
0.5889909833086749
0.6182630090774051
0.6521117269990484
0.6913736967078417
0.7369589303472527
0.7898551144928394
0.8510684826681383
0.9217859296370181
1.0034781032074547
1.0976087040974956
1.2053565428956
1.3275397786141756
1.4645243874116038
1.6161079328847812
1.7814211711096692
1.9588692581791016
2.146132596532931
2.34023674068019
2.5376896690545987
2.7346711851269503
2.9272518880069014
3.1116129451142562
3.2842279627380813
3.4419652372761105
3.5820694102791144
3.7019768779580886
3.798890831370454
3.869064815614432
3.9067237413325513
3.902549185618849
3.8418755146646704
3.7033843603784793
3.4605628983470833
3.0906803218981937
2.5967787361935404
2.038284645090486
1.5347356538546735
1.1995264067172766
1.0489071374114627
1.0074739338882037
1.0008532469939375
1.0000905089663077
1.000009391859438
1.0000009606938065
1.0000000970896095
1.0000000097080122
1.0000000009614962
1.000000000094413
1.0000000000091984
1.0000000000008895
1.0000000000000846
1.0000000000000078
1.0000000000000007
1.0
1.0
1.0
1.0
1.0
1.0
1.0
1.0
1.0
1.0
1.0
1.0
1.0
1.0
1.0
1.0
2.988427027636187
2.8138795296938657
2.437286081643726
2.056848149190815
1.730388689316578
1.4608722090968518
1.2406038278311613
1.061834273245608
0.9173982194818311
0.8010166818527278
0.7074649464715845
0.6324918889697101
0.5726639150841502
0.525210933021131
0.48789964962169013
0.45893587672548036
0.4368883344317529
0.4206249263986771
0.40925537506269805
0.40207864588509074
0.3985369130307176
0.39817837159785346
0.40062951183386103
0.40557548481137606
0.4127465886095105
0.4219098788968709
0.43286636053490474
0.4454548349534441
0.45956284040821427
0.47514379429129583
0.4922385820490813
0.5110002127072133
0.5317212630641922
0.5548652435186259
0.5810851240732209
0.6111482858977861
0.6459176356849964
0.6864066748798823
0.7337207076845226
0.7890293732663801
0.8537619841280121
0.9296330701404935
1.0183153132105405
1.1212409448885226
1.239529239462506
1.3738471856076668
1.5242548521285655
1.6900760717427032
1.8698180822052755
2.0611554138738786
2.2609928069390453
2.465609796547806
2.6708731104871593
2.872489744683148
3.066264061324691
3.2483190480898987
3.4152387311540684
3.5640872139412387
3.6922334918254176
3.796944395425374
3.8746892283279726
3.9200365199677627
3.924073091302875
3.872449353083691
3.743741649739612
3.51034480178889
3.146784330490826
2.6518482192709745
2.082032497351735
1.5602229213948176
1.209094110679387
1.0508037324668196
1.007590172461237
1.0008396302305622
1.000086435185446
1.0000087287191097
1.0000008709835462
1.000000086037466
1.0000000084231544
1.000000000818018
1.000000000078864
1.000000000007552
1.0000000000007183
1.0000000000000675
1.0000000000000062
1.0000000000000004
1.0
1.0
1.0
1.0
1.0
1.0
1.0
1.0
1.0
1.0
1.0
1.0
1.0
1.0
1.0
2.866130149566782
2.6751642154003856
2.2701738311371527
1.8745950312465725
1.5474008778415402
1.28562483638091
1.0774651497978833
0.912808237268176
0.78297676159129
0.6808363766669474
0.6006859783059093
0.5380079459622349
0.4892226850493445
0.4514937325197987
0.4225849696329156
0.4007549255652597
0.38467094147413955
0.3733311657256395
0.36599018106316783
0.3620905185017961
0.3612047883874648
0.3629915885931954
0.36716480369103116
0.3734731361686954
0.3816863794749099
0.391586739486525
0.40296574042218347
0.4156282093484951
0.4294039776698094
0.4441660683602385
0.459852818460706
0.4764917711928396
0.49422459236633387
0.5133338410786281
0.5342738381929582
0.5576525244348141
0.5841986889081128
0.6148077908069858
0.6505472836565123
0.6925906631773855
0.7422608154618408
0.8012163234988051
0.8713472993863804
0.9544945680071952
1.0523527918126327
1.1663483796890626
1.297458055421833
1.4460229767750898
1.611584576749555
1.7927739072945368
1.9872801681088526
2.1919079914479975
2.402727183335842
2.6153050164965066
2.8249913413392593
3.0272162231849564
3.2177522596945103
3.3928980463743086
3.5495150648352647
3.684870745504325
3.7962604145569743
3.8803075853758764
3.931829032738072
3.9421900538872467
3.897212809069994
3.775264123588018
3.5477220795880653
3.1869099720361547
2.6886412916674276
2.108211787287199
1.572574584206848
1.2117383199573777
1.0504233962711496
1.0072978011382419
1.0007818901872476
1.0000783056846787
1.0000077149873134
1.0000007526443215
1.0000000728145058
1.0000000069920207
1.0000000006668854
1.0000000000632148
1.0000000000059583
1.0000000000005582
1.0000000000000515
1.0000000000000044
1.0000000000000004
1.0
1.0
1.0
1.0
1.0
1.0
1.0
1.0
1.0
1.0
1.0
1.0
1.0
1.0
2.73519121289236
2.528827879727092
2.0997533815055256
1.6960217105003115
1.3744604014120902
1.12502064766333
0.9321201261175744
0.7834875356207233
0.6692291599727251
0.581592502160513
0.5145694776611914
0.4634971309809307
0.4247469446770755
0.39550720645230664
0.3736313192610897
0.35752077325576836
0.3460210914513265
0.3383221846407675
0.33386452159856933
0.33225708411774385
0.33321257852613956
0.3365016674706786
0.34192356757577735
0.34928770157822125
0.35840151214818056
0.3690623605005479
0.38105450493781234
0.39415348461251043
0.40813904064042117
0.4228150836263811
0.4380332173819987
0.4537166291814035
0.46988295115089534
0.4866666401324122
0.5043442854771796
0.5233403949798564
0.5442082833225376
0.5676633721603207
0.5946124008271584
0.6261266628990432
0.6634237841575366
0.7079865525925103
0.7616436698565594
0.826389405512211
0.9042359733531127
0.9971325372077042
1.1067996778063571
1.2345211439792496
1.3809226914944228
1.545774166748663
1.7278469957406293
1.924858864239075
2.1335266696379946
2.3497248160428863
2.5687360192012623
2.785567660418688
2.9952872809442317
3.1933286055634573
3.3757068970836746
3.5390711122126524
3.6805782340941544
3.797529921892869
3.88665026758676
3.9429146786051392
3.95783697514658
3.917245899149791
3.799142364406615
3.5738676312300806
3.2119577284137852
2.7074979487093684
2.1165886169448873
1.5714008595705153
1.2073230573536105
1.0478266827218035
1.0066438124538362
1.000689359013711
1.0000673313720136
1.000006487807552
1.0000006201313938
1.0000000588696039
1.0000000055540896
1.0000000005210583
1.000000000048631
1.000000000004517
1.0000000000004172
1.000000000000038
1.0000000000000033
1.0000000000000002
1.0
1.0
1.0
1.0
1.0
1.0
1.0
1.0
1.0
1.0
1.0
1.0
1.0
2.5959759148841473
2.376101344967966
1.9287893803896898
1.5243817067441823
1.2142402029942236
0.9808234876294386
0.8053173442080862
0.6736511567163137
0.5750606888853436
0.5014157803648917
0.446563777599401
0.4058182782626424
0.37561120076725146
0.35326368523995927
0.3368210362941537
0.3249127325884752
0.3166213013905226
0.31135990082988246
0.30876440971307695
0.3086057012113955
0.31072507522843346
0.3149919212714163
0.3212787317909734
0.32944647743557554
0.33933450129784004
0.3507528596733738
0.36347893234355944
0.37726190177978325
0.39183704347037557
0.4069481631108751
0.42237356630333484
0.43795104154181924
0.45359967188184597
0.4693385531823578
0.4853057081199102
0.5017651927647586
0.5191004440350371
0.5378406503111052
0.5586893276120015
0.582525775324072
0.6104043776143151
0.6436009910452591
0.6837317283114942
0.7327064508455434
0.792603324300401
0.8656154193746779
0.9539277022385755
1.0595320652662492
1.1839997385314567
1.328231843246254
1.492223453614956
1.674888332483897
1.8739803797340016
2.0861357105138154
2.30704135840103
2.531708661751178
2.7548187831792954
2.9710965005510235
3.1756576340199394
3.3642424045562014
3.5332954114482265
3.6798715703132
3.8012617254626373
3.8942438388821774
3.9538688301651503
3.971667418687402
3.93329139696855
3.8161765428703434
3.589544634236078
3.2224899771783764
2.708651786192377
2.107194467764787
1.556872892827276
1.1962388619304671
1.0433230060065402
1.0057266639302958
1.0005758059611711
1.0000549868751178
1.0000051938250327
1.000000487408265
1.0000000454848914
1.0000000042230888
1.0000000003902683
1.0000000000359102
1.0000000000032907
1.0000000000003002
1.0000000000000269
1.0000000000000022
1.0
1.0
1.0
1.0
1.0
1.0
1.0
1.0
1.0
1.0
1.0
1.0
1.0
2.449591917765911
2.2189646038822755
1.7604682923994184
1.3626888548217955
1.0687214244571945
0.8539236674607604
0.6968799836486754
0.5821932531914717
0.49858097190794515
0.4377630243856523
0.3936009053448523
0.3615130360668666
0.3381087118477898
0.3209528785363529
0.3083723154801408
0.29927943359287223