# vtk DataFile Version 3.0 
shock_diffraction_time_series_127_.vtk
ASCII
DATASET UNSTRUCTURED_GRID
POINTS         10201 double
0.0 0.0 0.0
0.01 0.0 0.0
0.02 0.0 0.0
0.03 0.0 0.0
0.04 0.0 0.0
0.05 0.0 0.0
0.06 0.0 0.0
0.07 0.0 0.0
0.08 0.0 0.0
0.09 0.0 0.0
0.1 0.0 0.0
0.11 0.0 0.0
0.12 0.0 0.0
0.13 0.0 0.0
0.14 0.0 0.0
0.15 0.0 0.0
0.16 0.0 0.0
0.17 0.0 0.0
0.18 0.0 0.0
0.19 0.0 0.0
0.2 0.0 0.0
0.21 0.0 0.0
0.22 0.0 0.0
0.23 0.0 0.0
0.24 0.0 0.0
0.25 0.0 0.0
0.26 0.0 0.0
0.27 0.0 0.0
0.28 0.0 0.0
0.29 0.0 0.0
0.3 0.0 0.0
0.31 0.0 0.0
0.32 0.0 0.0
0.33 0.0 0.0
0.34 0.0 0.0
0.35000000000000003 0.0 0.0
0.36 0.0 0.0
0.37 0.0 0.0
0.38 0.0 0.0
0.39 0.0 0.0
0.4 0.0 0.0
0.41000000000000003 0.0 0.0
0.42 0.0 0.0
0.43 0.0 0.0
0.44 0.0 0.0
0.45 0.0 0.0
0.46 0.0 0.0
0.47000000000000003 0.0 0.0
0.48 0.0 0.0
0.49 0.0 0.0
0.5 0.0 0.0
0.51 0.0 0.0
0.52 0.0 0.0
0.53 0.0 0.0
0.54 0.0 0.0
0.55 0.0 0.0
0.56 0.0 0.0
0.5700000000000001 0.0 0.0
0.58 0.0 0.0
0.59 0.0 0.0
0.6 0.0 0.0
0.61 0.0 0.0
0.62 0.0 0.0
0.63 0.0 0.0
0.64 0.0 0.0
0.65 0.0 0.0
0.66 0.0 0.0
0.67 0.0 0.0
0.68 0.0 0.0
0.6900000000000001 0.0 0.0
0.7000000000000001 0.0 0.0
0.71 0.0 0.0
0.72 0.0 0.0
0.73 0.0 0.0
0.74 0.0 0.0
0.75 0.0 0.0
0.76 0.0 0.0
0.77 0.0 0.0
0.78 0.0 0.0
0.79 0.0 0.0
0.8 0.0 0.0
0.81 0.0 0.0
0.8200000000000001 0.0 0.0
0.8300000000000001 0.0 0.0
0.84 0.0 0.0
0.85 0.0 0.0
0.86 0.0 0.0
0.87 0.0 0.0
0.88 0.0 0.0
0.89 0.0 0.0
0.9 0.0 0.0
0.91 0.0 0.0
0.92 0.0 0.0
0.93 0.0 0.0
0.9400000000000001 0.0 0.0
0.9500000000000001 0.0 0.0
0.96 0.0 0.0
0.97 0.0 0.0
0.98 0.0 0.0
0.99 0.0 0.0
1.0 0.0 0.0
0.0 0.01 0.0
0.01 0.01 0.0
0.02 0.01 0.0
0.03 0.01 0.0
0.04 0.01 0.0
0.05 0.01 0.0
0.06 0.01 0.0
0.07 0.01 0.0
0.08 0.01 0.0
0.09 0.01 0.0
0.1 0.01 0.0
0.11 0.01 0.0
0.12 0.01 0.0
0.13 0.01 0.0
0.14 0.01 0.0
0.15 0.01 0.0
0.16 0.01 0.0
0.17 0.01 0.0
0.18 0.01 0.0
0.19 0.01 0.0
0.2 0.01 0.0
0.21 0.01 0.0
0.22 0.01 0.0
0.23 0.01 0.0
0.24 0.01 0.0
0.25 0.01 0.0
0.26 0.01 0.0
0.27 0.01 0.0
0.28 0.01 0.0
0.29 0.01 0.0
0.3 0.01 0.0
0.31 0.01 0.0
0.32 0.01 0.0
0.33 0.01 0.0
0.34 0.01 0.0
0.35000000000000003 0.01 0.0
0.36 0.01 0.0
0.37 0.01 0.0
0.38 0.01 0.0
0.39 0.01 0.0
0.4 0.01 0.0
0.41000000000000003 0.01 0.0
0.42 0.01 0.0
0.43 0.01 0.0
0.44 0.01 0.0
0.45 0.01 0.0
0.46 0.01 0.0
0.47000000000000003 0.01 0.0
0.48 0.01 0.0
0.49 0.01 0.0
0.5 0.01 0.0
0.51 0.01 0.0
0.52 0.01 0.0
0.53 0.01 0.0
0.54 0.01 0.0
0.55 0.01 0.0
0.56 0.01 0.0
0.5700000000000001 0.01 0.0
0.58 0.01 0.0
0.59 0.01 0.0
0.6 0.01 0.0
0.61 0.01 0.0
0.62 0.01 0.0
0.63 0.01 0.0
0.64 0.01 0.0
0.65 0.01 0.0
0.66 0.01 0.0
0.67 0.01 0.0
0.68 0.01 0.0
0.6900000000000001 0.01 0.0
0.7000000000000001 0.01 0.0
0.71 0.01 0.0
0.72 0.01 0.0
0.73 0.01 0.0
0.74 0.01 0.0
0.75 0.01 0.0
0.76 0.01 0.0
0.77 0.01 0.0
0.78 0.01 0.0
0.79 0.01 0.0
0.8 0.01 0.0
0.81 0.01 0.0
0.8200000000000001 0.01 0.0
0.8300000000000001 0.01 0.0
0.84 0.01 0.0
0.85 0.01 0.0
0.86 0.01 0.0
0.87 0.01 0.0
0.88 0.01 0.0
0.89 0.01 0.0
0.9 0.01 0.0
0.91 0.01 0.0
0.92 0.01 0.0
0.93 0.01 0.0
0.9400000000000001 0.01 0.0
0.9500000000000001 0.01 0.0
0.96 0.01 0.0
0.97 0.01 0.0
0.98 0.01 0.0
0.99 0.01 0.0
1.0 0.01 0.0
0.0 0.02 0.0
0.01 0.02 0.0
0.02 0.02 0.0
0.03 0.02 0.0
0.04 0.02 0.0
0.05 0.02 0.0
0.06 0.02 0.0
0.07 0.02 0.0
0.08 0.02 0.0
0.09 0.02 0.0
0.1 0.02 0.0
0.11 0.02 0.0
0.12 0.02 0.0
0.13 0.02 0.0
0.14 0.02 0.0
0.15 0.02 0.0
0.16 0.02 0.0
0.17 0.02 0.0
0.18 0.02 0.0
0.19 0.02 0.0
0.2 0.02 0.0
0.21 0.02 0.0
0.22 0.02 0.0
0.23 0.02 0.0
0.24 0.02 0.0
0.25 0.02 0.0
0.26 0.02 0.0
0.27 0.02 0.0
0.28 0.02 0.0
0.29 0.02 0.0
0.3 0.02 0.0
0.31 0.02 0.0
0.32 0.02 0.0
0.33 0.02 0.0
0.34 0.02 0.0
0.35000000000000003 0.02 0.0
0.36 0.02 0.0
0.37 0.02 0.0
0.38 0.02 0.0
0.39 0.02 0.0
0.4 0.02 0.0
0.41000000000000003 0.02 0.0
0.42 0.02 0.0
0.43 0.02 0.0
0.44 0.02 0.0
0.45 0.02 0.0
0.46 0.02 0.0
0.47000000000000003 0.02 0.0
0.48 0.02 0.0
0.49 0.02 0.0
0.5 0.02 0.0
0.51 0.02 0.0
0.52 0.02 0.0
0.53 0.02 0.0
0.54 0.02 0.0
0.55 0.02 0.0
0.56 0.02 0.0
0.5700000000000001 0.02 0.0
0.58 0.02 0.0
0.59 0.02 0.0
0.6 0.02 0.0
0.61 0.02 0.0
0.62 0.02 0.0
0.63 0.02 0.0
0.64 0.02 0.0
0.65 0.02 0.0
0.66 0.02 0.0
0.67 0.02 0.0
0.68 0.02 0.0
0.6900000000000001 0.02 0.0
0.7000000000000001 0.02 0.0
0.71 0.02 0.0
0.72 0.02 0.0
0.73 0.02 0.0
0.74 0.02 0.0
0.75 0.02 0.0
0.76 0.02 0.0
0.77 0.02 0.0
0.78 0.02 0.0
0.79 0.02 0.0
0.8 0.02 0.0
0.81 0.02 0.0
0.8200000000000001 0.02 0.0
0.8300000000000001 0.02 0.0
0.84 0.02 0.0
0.85 0.02 0.0
0.86 0.02 0.0
0.87 0.02 0.0
0.88 0.02 0.0
0.89 0.02 0.0
0.9 0.02 0.0
0.91 0.02 0.0
0.92 0.02 0.0
0.93 0.02 0.0
0.9400000000000001 0.02 0.0
0.9500000000000001 0.02 0.0
0.96 0.02 0.0
0.97 0.02 0.0
0.98 0.02 0.0
0.99 0.02 0.0
1.0 0.02 0.0
0.0 0.03 0.0
0.01 0.03 0.0
0.02 0.03 0.0
0.03 0.03 0.0
0.04 0.03 0.0
0.05 0.03 0.0
0.06 0.03 0.0
0.07 0.03 0.0
0.08 0.03 0.0
0.09 0.03 0.0
0.1 0.03 0.0
0.11 0.03 0.0
0.12 0.03 0.0
0.13 0.03 0.0
0.14 0.03 0.0
0.15 0.03 0.0
0.16 0.03 0.0
0.17 0.03 0.0
0.18 0.03 0.0
0.19 0.03 0.0
0.2 0.03 0.0
0.21 0.03 0.0
0.22 0.03 0.0
0.23 0.03 0.0
0.24 0.03 0.0
0.25 0.03 0.0
0.26 0.03 0.0
0.27 0.03 0.0
0.28 0.03 0.0
0.29 0.03 0.0
0.3 0.03 0.0
0.31 0.03 0.0
0.32 0.03 0.0
0.33 0.03 0.0
0.34 0.03 0.0
0.35000000000000003 0.03 0.0
0.36 0.03 0.0
0.37 0.03 0.0
0.38 0.03 0.0
0.39 0.03 0.0
0.4 0.03 0.0
0.41000000000000003 0.03 0.0
0.42 0.03 0.0
0.43 0.03 0.0
0.44 0.03 0.0
0.45 0.03 0.0
0.46 0.03 0.0
0.47000000000000003 0.03 0.0
0.48 0.03 0.0
0.49 0.03 0.0
0.5 0.03 0.0
0.51 0.03 0.0
0.52 0.03 0.0
0.53 0.03 0.0
0.54 0.03 0.0
0.55 0.03 0.0
0.56 0.03 0.0
0.5700000000000001 0.03 0.0
0.58 0.03 0.0
0.59 0.03 0.0
0.6 0.03 0.0
0.61 0.03 0.0
0.62 0.03 0.0
0.63 0.03 0.0
0.64 0.03 0.0
0.65 0.03 0.0
0.66 0.03 0.0
0.67 0.03 0.0
0.68 0.03 0.0
0.6900000000000001 0.03 0.0
0.7000000000000001 0.03 0.0
0.71 0.03 0.0
0.72 0.03 0.0
0.73 0.03 0.0
0.74 0.03 0.0
0.75 0.03 0.0
0.76 0.03 0.0
0.77 0.03 0.0
0.78 0.03 0.0
0.79 0.03 0.0
0.8 0.03 0.0
0.81 0.03 0.0
0.8200000000000001 0.03 0.0
0.8300000000000001 0.03 0.0
0.84 0.03 0.0
0.85 0.03 0.0
0.86 0.03 0.0
0.87 0.03 0.0
0.88 0.03 0.0
0.89 0.03 0.0
0.9 0.03 0.0
0.91 0.03 0.0
0.92 0.03 0.0
0.93 0.03 0.0
0.9400000000000001 0.03 0.0
0.9500000000000001 0.03 0.0
0.96 0.03 0.0
0.97 0.03 0.0
0.98 0.03 0.0
0.99 0.03 0.0
1.0 0.03 0.0
0.0 0.04 0.0
0.01 0.04 0.0
0.02 0.04 0.0
0.03 0.04 0.0
0.04 0.04 0.0
0.05 0.04 0.0
0.06 0.04 0.0
0.07 0.04 0.0
0.08 0.04 0.0
0.09 0.04 0.0
0.1 0.04 0.0
0.11 0.04 0.0
0.12 0.04 0.0
0.13 0.04 0.0
0.14 0.04 0.0
0.15 0.04 0.0
0.16 0.04 0.0
0.17 0.04 0.0
0.18 0.04 0.0
0.19 0.04 0.0
0.2 0.04 0.0
0.21 0.04 0.0
0.22 0.04 0.0
0.23 0.04 0.0
0.24 0.04 0.0
0.25 0.04 0.0
0.26 0.04 0.0
0.27 0.04 0.0
0.28 0.04 0.0
0.29 0.04 0.0
0.3 0.04 0.0
0.31 0.04 0.0
0.32 0.04 0.0
0.33 0.04 0.0
0.34 0.04 0.0
0.35000000000000003 0.04 0.0
0.36 0.04 0.0
0.37 0.04 0.0
0.38 0.04 0.0
0.39 0.04 0.0
0.4 0.04 0.0
0.41000000000000003 0.04 0.0
0.42 0.04 0.0
0.43 0.04 0.0
0.44 0.04 0.0
0.45 0.04 0.0
0.46 0.04 0.0
0.47000000000000003 0.04 0.0
0.48 0.04 0.0
0.49 0.04 0.0
0.5 0.04 0.0
0.51 0.04 0.0
0.52 0.04 0.0
0.53 0.04 0.0
0.54 0.04 0.0
0.55 0.04 0.0
0.56 0.04 0.0
0.5700000000000001 0.04 0.0
0.58 0.04 0.0
0.59 0.04 0.0
0.6 0.04 0.0
0.61 0.04 0.0
0.62 0.04 0.0
0.63 0.04 0.0
0.64 0.04 0.0
0.65 0.04 0.0
0.66 0.04 0.0
0.67 0.04 0.0
0.68 0.04 0.0
0.6900000000000001 0.04 0.0
0.7000000000000001 0.04 0.0
0.71 0.04 0.0
0.72 0.04 0.0
0.73 0.04 0.0
0.74 0.04 0.0
0.75 0.04 0.0
0.76 0.04 0.0
0.77 0.04 0.0
0.78 0.04 0.0
0.79 0.04 0.0
0.8 0.04 0.0
0.81 0.04 0.0
0.8200000000000001 0.04 0.0
0.8300000000000001 0.04 0.0
0.84 0.04 0.0
0.85 0.04 0.0
0.86 0.04 0.0
0.87 0.04 0.0
0.88 0.04 0.0
0.89 0.04 0.0
0.9 0.04 0.0
0.91 0.04 0.0
0.92 0.04 0.0
0.93 0.04 0.0
0.9400000000000001 0.04 0.0
0.9500000000000001 0.04 0.0
0.96 0.04 0.0
0.97 0.04 0.0
0.98 0.04 0.0
0.99 0.04 0.0
1.0 0.04 0.0
0.0 0.05 0.0
0.01 0.05 0.0
0.02 0.05 0.0
0.03 0.05 0.0
0.04 0.05 0.0
0.05 0.05 0.0
0.06 0.05 0.0
0.07 0.05 0.0
0.08 0.05 0.0
0.09 0.05 0.0
0.1 0.05 0.0
0.11 0.05 0.0
0.12 0.05 0.0
0.13 0.05 0.0
0.14 0.05 0.0
0.15 0.05 0.0
0.16 0.05 0.0
0.17 0.05 0.0
0.18 0.05 0.0
0.19 0.05 0.0
0.2 0.05 0.0
0.21 0.05 0.0
0.22 0.05 0.0
0.23 0.05 0.0
0.24 0.05 0.0
0.25 0.05 0.0
0.26 0.05 0.0
0.27 0.05 0.0
0.28 0.05 0.0
0.29 0.05 0.0
0.3 0.05 0.0
0.31 0.05 0.0
0.32 0.05 0.0
0.33 0.05 0.0
0.34 0.05 0.0
0.35000000000000003 0.05 0.0
0.36 0.05 0.0
0.37 0.05 0.0
0.38 0.05 0.0
0.39 0.05 0.0
0.4 0.05 0.0
0.41000000000000003 0.05 0.0
0.42 0.05 0.0
0.43 0.05 0.0
0.44 0.05 0.0
0.45 0.05 0.0
0.46 0.05 0.0
0.47000000000000003 0.05 0.0
0.48 0.05 0.0
0.49 0.05 0.0
0.5 0.05 0.0
0.51 0.05 0.0
0.52 0.05 0.0
0.53 0.05 0.0
0.54 0.05 0.0
0.55 0.05 0.0
0.56 0.05 0.0
0.5700000000000001 0.05 0.0
0.58 0.05 0.0
0.59 0.05 0.0
0.6 0.05 0.0
0.61 0.05 0.0
0.62 0.05 0.0
0.63 0.05 0.0
0.64 0.05 0.0
0.65 0.05 0.0
0.66 0.05 0.0
0.67 0.05 0.0
0.68 0.05 0.0
0.6900000000000001 0.05 0.0
0.7000000000000001 0.05 0.0
0.71 0.05 0.0
0.72 0.05 0.0
0.73 0.05 0.0
0.74 0.05 0.0
0.75 0.05 0.0
0.76 0.05 0.0
0.77 0.05 0.0
0.78 0.05 0.0
0.79 0.05 0.0
0.8 0.05 0.0
0.81 0.05 0.0
0.8200000000000001 0.05 0.0
0.8300000000000001 0.05 0.0
0.84 0.05 0.0
0.85 0.05 0.0
0.86 0.05 0.0
0.87 0.05 0.0
0.88 0.05 0.0
0.89 0.05 0.0
0.9 0.05 0.0
0.91 0.05 0.0
0.92 0.05 0.0
0.93 0.05 0.0
0.9400000000000001 0.05 0.0
0.9500000000000001 0.05 0.0
0.96 0.05 0.0
0.97 0.05 0.0
0.98 0.05 0.0
0.99 0.05 0.0
1.0 0.05 0.0
0.0 0.06 0.0
0.01 0.06 0.0
0.02 0.06 0.0
0.03 0.06 0.0
0.04 0.06 0.0
0.05 0.06 0.0
0.06 0.06 0.0
0.07 0.06 0.0
0.08 0.06 0.0
0.09 0.06 0.0
0.1 0.06 0.0
0.11 0.06 0.0
0.12 0.06 0.0
0.13 0.06 0.0
0.14 0.06 0.0
0.15 0.06 0.0
0.16 0.06 0.0
0.17 0.06 0.0
0.18 0.06 0.0
0.19 0.06 0.0
0.2 0.06 0.0
0.21 0.06 0.0
0.22 0.06 0.0
0.23 0.06 0.0
0.24 0.06 0.0
0.25 0.06 0.0
0.26 0.06 0.0
0.27 0.06 0.0
0.28 0.06 0.0
0.29 0.06 0.0
0.3 0.06 0.0
0.31 0.06 0.0
0.32 0.06 0.0
0.33 0.06 0.0
0.34 0.06 0.0
0.35000000000000003 0.06 0.0
0.36 0.06 0.0
0.37 0.06 0.0
0.38 0.06 0.0
0.39 0.06 0.0
0.4 0.06 0.0
0.41000000000000003 0.06 0.0
0.42 0.06 0.0
0.43 0.06 0.0
0.44 0.06 0.0
0.45 0.06 0.0
0.46 0.06 0.0
[...]
POINT_DATA  10201
FIELD  FlowField  5
Density    1 10201  double
5.499788083471311
5.476050664568358
5.406423924384386
5.292091351680568
5.137023193493741
4.952562276708058
4.7535313414524065
4.555238757081457
4.371071376366427
4.210532963986301
4.0782612631010835
3.9744455944396533
3.8962839524694983
3.8396411154707604
3.8002807615015026
3.7745173360329662
3.7594288771950395
3.7528297877875096
3.7531483710615614
3.759287370216905
3.770500585641236
3.786295034861154
3.806357895532109
3.830503687896366
3.858636024312712
3.890718958274314
3.926755901398688
3.96677684288722
4.010831910841761
4.058985987439338
4.11131238214986
4.167887258762111
4.228785213291841
4.294075680040795
4.3638195477061315
4.438064333436689
4.516843183570254
4.600182672093842
4.6880942957070175
4.780555032957963
4.877507648409024
4.978864010415724
5.084500807564533
5.194255588215735
5.307924130669788
5.425259769479087
5.545973482415064
5.669721609707343
5.7961184116980125
5.92477049475484
6.055283931929848
6.187267562270279
6.320344259200285
6.454160292191728
6.588391576626521
6.722746415580289
6.8569647683539845
6.990814405934486
7.124084560633748
7.256577736984495
7.388100304829814
7.518452386415958
7.647417334869637
7.774750894585559
7.900170002917303
8.023340948041525
8.143866407271
8.261270302189605
8.374978761679007
8.484295068483233
8.588366564933857
8.68614258247995
8.776322574301117
8.85729095719919
8.92702915813939
8.98299196019369
9.021942924883472
9.039765865678358
9.031279924332885
8.990028681268566
8.90807232877444
8.77580012204388
8.581859625525166
8.313621759047775
7.958505101893344
7.5058967267616055
6.949173989975298
6.288007917307741
5.53131187010011
4.699977618713987
3.8283927033743095
2.9672625338350684
2.1898014254654896
1.585727693876496
1.2160877323023005
1.0555257901359059
1.0101249716998595
1.001545609015031
1.000221882796449
1.0000312999127063
1.0000081977284014
5.339929741240624
5.318618848114416
5.25545121672819
5.150958009329348
5.008951217049274
4.839692331050968
4.6563074884961155
4.47229131097336
4.299585596799602
4.1469771614979
4.019196912188802
3.9171023370532705
3.8387547922953593
3.7807802275040414
3.7394791937024072
3.7114880957663403
3.694053746392191
3.6850673892613903
3.682984103304933
3.6867086879520605
3.695486837321701
3.70881439173598
3.7263674219260117
3.7479506721788747
3.7734596564701133
3.802851555226056
3.8361227515474603
3.873294735791738
3.914407949072189
3.9595171340222857
4.008684990173794
4.061976546455214
4.119454763229598
4.181176981187618
4.2471916272952965
4.31753324882284
4.392225317125318
4.471286041783792
4.554715350703669
4.642483229277531
4.734533288965292
4.830783164256369
4.9311207832843
5.035400992806782
5.143443236780088
5.2550307179856155
5.369902417621023
5.487745795124485
5.608219692595455
5.730977419151706
5.855668049116935
5.981942256695179
6.109462293823963
6.237910030655385
6.366992036783738
6.496441307504703
6.626015704511367
6.755493467117347
6.884666283084765
7.0133305002365764
7.14127703399236
7.268280344644229
7.394086619114283
7.518401020192492
7.640873658020468
7.761083789812798
7.87852183457099
7.992568411101092
8.10246879269307
8.207299727050366
8.305924104175741
8.396930315158208
8.478556004606078
8.548599222304171
8.604312439349407
8.642242876083671
8.65803822602893
8.646247598569762
8.600159364868901
8.511830541403418
8.372419427424166
8.172766710038067
7.904212081452655
7.5600867704049755
7.138480607295627
6.6455675117090385
6.09648043274952
5.51165129359156
4.908769256794091
4.294807876558512
3.6673877892182305
3.027351937424581
2.39708584563723
1.8322928324932837
1.404020696595203
1.1491674297302967
1.0391171145633398
1.007203773404758
1.0010762076817368
1.00015279539229
1.0000404754909118
4.9133418475599875
4.899584343895382
4.856378081995994
4.781257182360561
4.676362116799292
4.548486181261278
4.406428208646084
4.259560528857101
4.116760731729466
3.9853716058674067
3.8703817598729575
3.7741436677331213
3.69670099028541
3.6365127979494734
3.591252264563308
3.5584304514142158
3.5357751568307805
3.5214060406967453
3.513866657149126
3.5120811523361204
3.515283917134013
3.5229483265847694
3.534725762385918
3.550397662669573
3.5698388100612033
3.592987930228493
3.619823006554716
3.6503440165192163
3.6845665288097966
3.722518992749772
3.7642370905577174
3.8097582904362604
3.85911788512223
3.9123460620972894
3.9694656430734243
4.030492092002627
4.095441850042997
4.164324678701262
4.237127765855114
4.313819610971574
4.394353517669343
4.478663605174617
4.566661718089931
4.658244581697911
4.753297754551318
4.8516809799539224
4.953208565159881
5.057662177667101
5.164815573732548
5.274432897044944
5.386266584422626
5.500063624138948
5.615571995780725
5.732545622066819
5.850747057552461
5.96994751018388
6.089924039475982
6.2104540297038655
6.331307225275003
6.4522353952546965
6.572959890312303
6.693157134460512
6.812441920634752
6.930347851431526
7.04630354411235
7.159602528725449
7.26936513211874
7.374491970469325
7.473608835332776
7.565002050487529
7.646524674266434
7.715448301735104
7.768301285008857
7.80070929199573
7.807259552791657
7.781483398776987
7.715995842014865
7.602767990627115
7.433647099524531
7.201656575339012
6.903720655919945
6.54455694875068
6.139535895960787
5.714467424480231
5.2992371347634055
4.917408769815085
4.581633318174087
4.294057414202955
4.045077811360725
3.8116351880157135
3.5590472630426095
3.2491084303333375
2.8552931205421883
2.3834372501398633
1.8880984715564293
1.461740894700842
1.1809967746265921
1.0497667703542608
1.0093597605111342
1.0014116276815956
1.00038537041454
4.279358191505615
4.277951641257172
4.267447710969547
4.239229318106012
4.190979739583089
4.1238852981199265
4.041112131189917
3.9472826245552035
3.847985452213407
3.749056523633384
3.655729462371715
3.571924512345608
3.499898773180561
3.4403300760019984
3.392708249149327
3.355817105121258
3.3281680596451246
3.3083115012318416
3.2950023174991827
3.2872539705804193
3.284327741136238
3.285694611361946
3.2909909908446866
3.2999783841603385
3.3125099836300884
3.3285028504788605
3.347913271814768
3.3707171177906883
3.3969013924342817
3.4264628594271067
3.459404299169456
3.4957297151851434
3.5354409773051945
3.5785357715760564
3.625008394800056
3.6748623460875747
3.7281122477563717
3.7847606841489387
3.8447964458277903
3.9082091248548654
3.9749897922763733
4.045127870937343
4.118607414447214
4.1954026014727726
4.275478673047795
4.358786048312718
4.445258351048145
4.534824587923797
4.627402355181842
4.722883054539705
4.821128968159062
4.921973781478983
5.025224380819927
5.130663001147171
5.238048855777313
5.347118294519123
5.4575823208041
5.56912085779576
5.681373289456306
5.793924189775749
5.906283604237207
6.017861140352888
6.127933710365303
6.235606158511867
6.339763905686462
6.439008148409398
6.531546721243114
6.61506941372881
6.686628437991758
6.742509271552702
6.778129707249496
6.78800418357677
6.765779987778577
6.704372142351796
6.596390244566423
6.435306590355422
6.217718283939573
5.9463461904921475
5.632300434767516
5.295466344775248
4.960454429302873
4.649361669673752
4.37905594566936
4.1622752506253216
4.006483544236103
3.910534932129111
3.8625630364028614
3.8412273677840822
3.82091775322883
3.778021323730524
3.6913246465956773
3.538261147039623
3.2947701251511408
2.9430053984549547
2.4891976630763786
1.9856131978240539
1.5300702234692096
1.2154500754568323
1.0615080908890946
1.0122774964868992
1.0037322682020426
3.512934320636034
3.523158868509629
3.544670217365055
3.564005631907063
3.57445220881415
3.5721099213877374
3.554869965545058
3.522483768807887
3.476700452206467
3.4210156038986392
3.359980845180691
3.2982865470596434
3.2398994853850778
3.18753699167528
3.1425915993971625
3.105381971718905
3.0755164646133206
3.0522483759376584
3.0347479382694664
3.022258830950596
3.0141639179982946
3.009995438339866
3.0094182299693095
3.012203980084864
3.018205270799467
3.0273321157806623
3.0395306631643857
3.054764742464413
3.073005123733038
3.0942267513516555
3.118407114952089
3.1455234222884245
3.1755499087938586
3.2084571042757677
3.244221969160661
3.28284630085684
3.324344921239885
3.368723488909713
3.41599128550796
3.4661793487426555
3.5193429838876633
3.575560045392127
3.6349292830730464
3.6975474356774685
3.7634939631304967
3.832852685227529
3.905718694654599
3.982171012273057
4.0622417632217225
4.145897470805917
4.233028049682582
4.32344132831172
4.416862714468958
4.512938449902513
4.611240032507267
4.711267391547491
4.812447667702856
4.914127037171676
5.015554259054508
5.11585455600585
5.2139851196151366
5.308660243895005
5.3982754069756895
5.480832279028235
5.553846106924015
5.614259453603845
5.6583772358005024
5.681829150421079
5.6795780291176525
5.646057689609647
5.575650954997142
5.463773733707335
5.308589664952237
5.112901094918874
4.885320153669229
4.64024850397278
4.395011393630933
4.165602556091423
3.9656552908426823
3.807165833019427
3.6992772847943405
3.6451279269117878
3.639169485775367
3.6668352774497017
3.709695929057713
3.7541753249388305
3.7936877530521045
3.8245003997387466
3.8424399249182213
3.8411811943833936
3.8109160225727265
3.7369861023900617
3.599017508102037
3.3723764586143226
3.035604137550946
2.588028821716743
2.0747564691607923
1.5937343961999042
1.2501498059250253
1.078358632719067
1.0328677187237054
2.8130883619562534
2.824888199042829
2.853373420127747
2.8881101511621994
2.9234989204731407
2.9556838468901097
2.981055373655223
2.99620459664642
2.998756774541111
2.988188159873231
2.9660578725578777
2.9355222167402872
2.9004128472328565
2.8643154074040122
2.829946203400598
2.7989784257506174
2.772206750409759
2.7498045317244637
2.7315778388476954
2.7171851212653877
2.706274128252912
2.6985468426380925
2.6937788746953206
2.691815662000226
2.6925592398673794
2.6959525878531294
2.7019646367487336
2.7105769637727604
2.7217731569431582
2.735532620651237
2.7518303347453448
2.7706384059855633
2.791924917022427
2.815660280541722
2.841842240237704
2.8704961031043186
2.9016609244531213
2.9353872533409535
2.9717428813439732
3.0108299802257728
3.052792888153788
3.0978132726756806
3.146091959671005
3.197865988810161
3.2534027398329073
3.3129503816273913
3.376707521359748
3.444787215394932
3.5171792707494283
3.593721536439614
3.6740830425615707
3.757760520621452
3.8440847193376233
3.9322324303698926
4.021237665740318
4.109984444948952
4.197189308242508
4.28139129439863
4.360924977714484
4.433872700924354
4.498016838217922
4.5507966213883035
4.5892741563403865
4.610126580535119
4.609712949363896
4.584317018421347
4.530700561907024
4.446981013658172
4.333670527181086
4.1945234657284365
4.036819600406157
3.8708777942594232
3.708047839713197
3.5588566541764175
3.4330349848796047
3.3395678215306743
3.2853357601709043
3.272688239926841
3.297495789506173
3.3487826574279578
3.412569533065759
3.478770353654955
3.543157264238056
3.604436590948264
3.6620614783977907
3.7154905716565207
3.763929774846503
3.8060848732463866
3.839799413932159
3.8614969333780653
3.865342995501919
3.8420657807835727
3.777514466189629
3.651491742718057
3.4385363611639477
3.1143359145343164
2.6727510782046666
2.1536767301265867
1.6595045361557945
1.313031763941592
1.1906894911704649
2.3605721894026592
2.364557471998223
2.374291881490853
2.386474897312891
2.400239413355305
2.416186666198519
2.4344214518597784
2.4535747270264476
2.470978686335708
2.4835922462669693
2.48914113944
2.4868671314163717
2.4776351529864766
2.463413478838099
2.4464639234073395
2.428727880216156
2.411576445072928
2.395815177743346
2.381844684562113
2.369821512637743
2.3597689991147064
2.351664962454876
2.345489731687141
2.341243508769012
2.3389473096063362
2.3386371505870125
2.340357183347215
2.3441530574359493
2.3500635649293913
2.3581114493487134
2.3683048755980565
2.3806444581760644
2.395134684628008
2.411803360027098
2.4307115480994677
2.451936199018867
2.475583309578639
2.5017944691923235
2.5307335941482476
2.5626013695304657
2.5976377220333
2.6361464386808113
2.6784752467717894
2.724968776358994
2.7759280189961095
2.8315367701104437
2.8918136274329225
2.9565736871607533
3.0253829054222994
3.097524275835813
3.1719717819239253
3.2473969828791702
3.322221849882114
3.39466941604537
3.46279680449607
3.524521996540429
3.577639357679932
3.619827668522281
3.6486704185013084
3.6617264802823835
3.6567072069603626
3.631807743681351
3.5861549261887915
3.5202902577121113
3.436554057475293
3.339197470739196
3.2342347640626126
3.1286950949561554
3.0296154995685516
2.9437947442957166
2.8778843990245853
2.837885475844241
2.8278712050750476
2.8484188152046253
2.895672036884377
2.961496887513253
3.0364285214609525
3.1139403207720013
3.1911685187509526
3.267045166815499
3.3410279874868785
3.412699928938094
3.481697695402163
3.5476927975186037
3.610367506040477
3.669369850930713
3.7242348716723237
3.7742531620105275
3.818256823768544
3.8542760688221036
3.8789983332273064
3.886941568927712
3.8692611943634945
3.8122214949711024
3.69578433505
3.4938783460593057
3.180274810836159
2.748483685285911
2.253961683621964
1.8311687810852821
1.658807089370913
2.1380406362090554
2.1345890718875826
2.124647495385086
2.1085960470273486
2.087655254020969
2.0649455001380574
2.0440650259969995
2.0278663256736866
2.017687595580099
2.013137758216875
2.0124646849905425
2.0133659182672003
2.013863372302504
2.0127955280068224
2.009894245687759
2.005516613186664
2.000218242701811
1.9944793949712578
1.9886469116509982
1.9829494006701225
1.977551644493561
1.9726128998934072
1.9683043769981174
1.9648008856491945
1.9622777788689758
1.9609075947187762
1.9608573485889693
1.9622844073263366
1.9653242872089072
1.970084063110766
1.976649862482088
1.9851140378638135
1.995589752275157
2.0081976303117006
2.023083064315801
2.040429445344957
2.060456467500073
2.08340525864744
2.1095337076450136
2.139141529338561
2.1725294810430564
2.209966595427952
2.251668134702565
2.297704946890196
2.347929517867539
2.4019258595205004
2.4589638835761725
2.517982427873946
2.577583821518819
2.636046015614943
2.691372889417284
2.741377168235689
2.78378903434933
2.816389099041954
2.837171072845032
2.84454887700613
2.837585104592124
2.8161905127055245
2.781270395902177
2.734774469854062
2.6796284884184347
2.6195800031650585
2.558793178623539
2.501469704147894
2.451850318416081
2.4142459161246816
2.3927633128740466
2.39065618584202
2.409462692255601
2.4483178525511953
2.5038113489455602
2.5705983392698197
2.643515014424912
2.719454617890526
2.7970560543091203
2.8756982590013975
2.9549306837988145
3.0342976079590818
3.113315110260768
3.191484079873569
3.2683102691957755
3.343322544407221
3.416087117616349
3.486214680445032
3.5533570632920397
3.6171886652649023
3.677365972269911
3.7334539315374795
3.7848013515203434
3.830335748500805
3.8682315259339752
3.8953816240515686
3.906578417121586
3.8933061172307206
3.842141523123274
3.733166567946654
3.540437291172389
3.247364197569727
2.904518152428851
2.629642175253272
2.5253888836813223
2.0212071348901466
2.014434983008756
1.995355586722691
1.9651799517183108
1.9248523724343591
1.877010484997999
1.8252486797706307
1.77340302254387
1.725040038208009
1.682990018380368
1.6489286048267
1.623205729220421
1.6050508090192757
1.5930353265339012
1.58557133033625
1.5812361135288486
1.5789036017891054
1.577752044596651
1.5771917508689808
1.576807583924759
1.576345631151778
1.5757047872389633
1.5749150843795376
1.574105828458852
1.57347594163525
1.5732678503512065
1.5737496822940842
1.5751876869153318
1.5778304655621291
1.5819265412510348
1.587711776756489
1.5954055909619085
1.6052552265435864
1.617530084187546
1.632465687116031
1.6502866750007954
1.6712386373245387
1.6955249502123626
1.72326905223034
1.7545127217030856
1.7891562783066415
1.8268978118947494
1.867216374152646
1.9093558058415139
1.9523068190127335
1.9948008333594833
2.0353235576735016
2.072164927847778
2.1035279069312836
2.127710469486165
2.1433595585400336
2.1497257165278154
2.1468287480613815
2.135508790357051
2.1173470590049464
2.094509869004154
2.069476581022966
2.044738468769706
2.0227376247688253
2.0059424707841
1.9968220821122142
1.997652191823499
2.010172019789464
2.035186720808741
2.072279465653768
2.119797668798352
2.175097135265259
2.2353791305232757
2.2987487907500457
2.3643818765030575
2.4320506844402563
2.5017320235647844
2.5734166381861785
2.647039462774634
2.722455032378708
2.79943035644789
2.8776463095929845
2.9567052789706345
3.0361459630951284
3.115462168705055
3.19412462578346
3.271604000462347
3.347392429128389
3.4210207595927216
3.492068740166565
3.560164484680141
3.6249690020235925
3.686138915385042
3.743256961163237
3.795712600125521
3.8425038592104883
3.8819134965645565
3.910988315381308
3.9247218089542324
3.9148308178857243
3.868118370374086
3.765763995974323
3.609016776851698
3.5177506335961715
3.600581741127227
3.685710872355841
1.9351848634526956
1.927148611277107
1.9046825987711862
1.8694621862295426
1.822268123067516
1.7651520290209142
1.7009187127374228
1.63260362445572
1.563238853576379
1.4957303410300704
1.4327297608678138
1.3764214464050932
1.3282962191620884
1.2890451052282683
1.2585589288489416
1.236043362485129
1.2202744422332887
1.2098617975575425
1.2034306800264272
1.1997591309358642
1.1978619200006477
1.19701613589455
1.196763583259042
1.1968900504907718
1.1973850723066366
1.198377430827067
1.200119415548365
1.2029543007251082
1.2072214917945188
1.2132296495527406
1.2212913629549609
1.2316562689677701
1.2444738585586566
1.259903646757298
1.2780462120094802
1.2988813255413434
1.322313831771339
1.348118546975764
1.3759009198610428
1.4050986784603967
1.4349835957189705
1.4646780446483203
1.4931915045697233
1.5194842100286854
1.5425644297967167
1.5616257955731718
1.576187416062264
1.5861964806113518
1.5920925918891595
1.5948100147571194
1.5957112191990956
1.5963966583392661
1.5984923143987837
1.603572136159655
1.6131206603020471
1.6284408789707685
1.6505057948592916
1.6797935893726261
1.7161703953742005
1.7588823974199097
1.8066687440174882
1.8579653827740779
1.911360421568464
1.9660048657249745
2.0215755355598346
2.078057355599685
2.1355789675526426
2.194327226007484
2.254509565520638
2.3163346373027545
2.3799969931532994
2.4456611401974087
2.5134445937727516
2.5834012748681827
2.6555057360379526
2.7296415130356046
2.805595730797931
2.88305946257387
2.9616349925767715
3.0408501092944213
3.1201781149579135
3.1990617124477865
3.2769384648891737
3.3532649634922547
3.427536992061511
3.4993023313941265
3.568163017692721
3.633762445335835
3.69575101962792
3.753719782284342
3.807084826339701
3.8548933933534375
3.895504666479451
3.9260718778929107
3.941721577473632
3.9343342314447836
3.8927831282867844
3.8618149259025216
4.091798246804972
4.637490441684228
4.95306654177144
1.85752716119223
1.8488091514134006
1.8246405312159004
1.787211099477672
1.7374517300356858
1.6772883509764822
1.6092513420039345
1.5359605552573163
1.4598917824860562
1.383309926596958
1.308275912053143
1.2366667904214788
1.1701420615654037
1.1100821364668232
1.0575213174375346
1.0130292134572974
0.976620623628101
0.9477806325949066
0.9255951052008431
0.9089537848382623
0.896743035860509
0.887975639948167
0.8818758448887047
0.8779102575168811
0.8758194306470595
0.8755930461601857
0.8773577744766636
0.8812822046018285
0.8875300668577042
0.8961369995239754
0.9070697940623316
0.9203008415872312
0.9356908380212481
0.9530498927628516
0.9721445996398834
0.9926388534577062
1.0141054289595137
1.0360432825681078
1.0579179697987477
1.0792252152315331
1.0995607681476496
1.1186710443089602
1.1365005700805317
1.1532398769382008
1.1693560203381326
1.1855893296301914
1.2028823892470428
1.22228664828986
1.2448771519283712
1.2716330686287898
1.3032839845739086
1.340156229945029
1.3820728006374823
1.4283597636982326
1.4779731096705577
1.52967631011033
1.5823192210564883
1.6351351719126717
1.6877775199873881
1.7401723157868099
1.7923859865393283
1.8445455066688303
1.8968002812031324
1.9493078038394185
2.0022311000063815
2.055741509535765
2.1100229832575037
2.1652754040347046
2.2217150873806295
2.279571235164824
2.339077710573915
2.4004602233879577
2.4639196597162174
2.5296130226308833