# vtk DataFile Version 3.0 
shock_diffraction_time_series_228_.vtk
ASCII
DATASET UNSTRUCTURED_GRID
POINTS         10201 double
0.0 0.0 0.0
0.01 0.0 0.0
0.02 0.0 0.0
0.03 0.0 0.0
0.04 0.0 0.0
0.05 0.0 0.0
0.06 0.0 0.0
0.07 0.0 0.0
0.08 0.0 0.0
0.09 0.0 0.0
0.1 0.0 0.0
0.11 0.0 0.0
0.12 0.0 0.0
0.13 0.0 0.0
0.14 0.0 0.0
0.15 0.0 0.0
0.16 0.0 0.0
0.17 0.0 0.0
0.18 0.0 0.0
0.19 0.0 0.0
0.2 0.0 0.0
0.21 0.0 0.0
0.22 0.0 0.0
0.23 0.0 0.0
0.24 0.0 0.0
0.25 0.0 0.0
0.26 0.0 0.0
0.27 0.0 0.0
0.28 0.0 0.0
0.29 0.0 0.0
0.3 0.0 0.0
0.31 0.0 0.0
0.32 0.0 0.0
0.33 0.0 0.0
0.34 0.0 0.0
0.35000000000000003 0.0 0.0
0.36 0.0 0.0
0.37 0.0 0.0
0.38 0.0 0.0
0.39 0.0 0.0
0.4 0.0 0.0
0.41000000000000003 0.0 0.0
0.42 0.0 0.0
0.43 0.0 0.0
0.44 0.0 0.0
0.45 0.0 0.0
0.46 0.0 0.0
0.47000000000000003 0.0 0.0
0.48 0.0 0.0
0.49 0.0 0.0
0.5 0.0 0.0
0.51 0.0 0.0
0.52 0.0 0.0
0.53 0.0 0.0
0.54 0.0 0.0
0.55 0.0 0.0
0.56 0.0 0.0
0.5700000000000001 0.0 0.0
0.58 0.0 0.0
0.59 0.0 0.0
0.6 0.0 0.0
0.61 0.0 0.0
0.62 0.0 0.0
0.63 0.0 0.0
0.64 0.0 0.0
0.65 0.0 0.0
0.66 0.0 0.0
0.67 0.0 0.0
0.68 0.0 0.0
0.6900000000000001 0.0 0.0
0.7000000000000001 0.0 0.0
0.71 0.0 0.0
0.72 0.0 0.0
0.73 0.0 0.0
0.74 0.0 0.0
0.75 0.0 0.0
0.76 0.0 0.0
0.77 0.0 0.0
0.78 0.0 0.0
0.79 0.0 0.0
0.8 0.0 0.0
0.81 0.0 0.0
0.8200000000000001 0.0 0.0
0.8300000000000001 0.0 0.0
0.84 0.0 0.0
0.85 0.0 0.0
0.86 0.0 0.0
0.87 0.0 0.0
0.88 0.0 0.0
0.89 0.0 0.0
0.9 0.0 0.0
0.91 0.0 0.0
0.92 0.0 0.0
0.93 0.0 0.0
0.9400000000000001 0.0 0.0
0.9500000000000001 0.0 0.0
0.96 0.0 0.0
0.97 0.0 0.0
0.98 0.0 0.0
0.99 0.0 0.0
1.0 0.0 0.0
0.0 0.01 0.0
0.01 0.01 0.0
0.02 0.01 0.0
0.03 0.01 0.0
0.04 0.01 0.0
0.05 0.01 0.0
0.06 0.01 0.0
0.07 0.01 0.0
0.08 0.01 0.0
0.09 0.01 0.0
0.1 0.01 0.0
0.11 0.01 0.0
0.12 0.01 0.0
0.13 0.01 0.0
0.14 0.01 0.0
0.15 0.01 0.0
0.16 0.01 0.0
0.17 0.01 0.0
0.18 0.01 0.0
0.19 0.01 0.0
0.2 0.01 0.0
0.21 0.01 0.0
0.22 0.01 0.0
0.23 0.01 0.0
0.24 0.01 0.0
0.25 0.01 0.0
0.26 0.01 0.0
0.27 0.01 0.0
0.28 0.01 0.0
0.29 0.01 0.0
0.3 0.01 0.0
0.31 0.01 0.0
0.32 0.01 0.0
0.33 0.01 0.0
0.34 0.01 0.0
0.35000000000000003 0.01 0.0
0.36 0.01 0.0
0.37 0.01 0.0
0.38 0.01 0.0
0.39 0.01 0.0
0.4 0.01 0.0
0.41000000000000003 0.01 0.0
0.42 0.01 0.0
0.43 0.01 0.0
0.44 0.01 0.0
0.45 0.01 0.0
0.46 0.01 0.0
0.47000000000000003 0.01 0.0
0.48 0.01 0.0
0.49 0.01 0.0
0.5 0.01 0.0
0.51 0.01 0.0
0.52 0.01 0.0
0.53 0.01 0.0
0.54 0.01 0.0
0.55 0.01 0.0
0.56 0.01 0.0
0.5700000000000001 0.01 0.0
0.58 0.01 0.0
0.59 0.01 0.0
0.6 0.01 0.0
0.61 0.01 0.0
0.62 0.01 0.0
0.63 0.01 0.0
0.64 0.01 0.0
0.65 0.01 0.0
0.66 0.01 0.0
0.67 0.01 0.0
0.68 0.01 0.0
0.6900000000000001 0.01 0.0
0.7000000000000001 0.01 0.0
0.71 0.01 0.0
0.72 0.01 0.0
0.73 0.01 0.0
0.74 0.01 0.0
0.75 0.01 0.0
0.76 0.01 0.0
0.77 0.01 0.0
0.78 0.01 0.0
0.79 0.01 0.0
0.8 0.01 0.0
0.81 0.01 0.0
0.8200000000000001 0.01 0.0
0.8300000000000001 0.01 0.0
0.84 0.01 0.0
0.85 0.01 0.0
0.86 0.01 0.0
0.87 0.01 0.0
0.88 0.01 0.0
0.89 0.01 0.0
0.9 0.01 0.0
0.91 0.01 0.0
0.92 0.01 0.0
0.93 0.01 0.0
0.9400000000000001 0.01 0.0
0.9500000000000001 0.01 0.0
0.96 0.01 0.0
0.97 0.01 0.0
0.98 0.01 0.0
0.99 0.01 0.0
1.0 0.01 0.0
0.0 0.02 0.0
0.01 0.02 0.0
0.02 0.02 0.0
0.03 0.02 0.0
0.04 0.02 0.0
0.05 0.02 0.0
0.06 0.02 0.0
0.07 0.02 0.0
0.08 0.02 0.0
0.09 0.02 0.0
0.1 0.02 0.0
0.11 0.02 0.0
0.12 0.02 0.0
0.13 0.02 0.0
0.14 0.02 0.0
0.15 0.02 0.0
0.16 0.02 0.0
0.17 0.02 0.0
0.18 0.02 0.0
0.19 0.02 0.0
0.2 0.02 0.0
0.21 0.02 0.0
0.22 0.02 0.0
0.23 0.02 0.0
0.24 0.02 0.0
0.25 0.02 0.0
0.26 0.02 0.0
0.27 0.02 0.0
0.28 0.02 0.0
0.29 0.02 0.0
0.3 0.02 0.0
0.31 0.02 0.0
0.32 0.02 0.0
0.33 0.02 0.0
0.34 0.02 0.0
0.35000000000000003 0.02 0.0
0.36 0.02 0.0
0.37 0.02 0.0
0.38 0.02 0.0
0.39 0.02 0.0
0.4 0.02 0.0
0.41000000000000003 0.02 0.0
0.42 0.02 0.0
0.43 0.02 0.0
0.44 0.02 0.0
0.45 0.02 0.0
0.46 0.02 0.0
0.47000000000000003 0.02 0.0
0.48 0.02 0.0
0.49 0.02 0.0
0.5 0.02 0.0
0.51 0.02 0.0
0.52 0.02 0.0
0.53 0.02 0.0
0.54 0.02 0.0
0.55 0.02 0.0
0.56 0.02 0.0
0.5700000000000001 0.02 0.0
0.58 0.02 0.0
0.59 0.02 0.0
0.6 0.02 0.0
0.61 0.02 0.0
0.62 0.02 0.0
0.63 0.02 0.0
0.64 0.02 0.0
0.65 0.02 0.0
0.66 0.02 0.0
0.67 0.02 0.0
0.68 0.02 0.0
0.6900000000000001 0.02 0.0
0.7000000000000001 0.02 0.0
0.71 0.02 0.0
0.72 0.02 0.0
0.73 0.02 0.0
0.74 0.02 0.0
0.75 0.02 0.0
0.76 0.02 0.0
0.77 0.02 0.0
0.78 0.02 0.0
0.79 0.02 0.0
0.8 0.02 0.0
0.81 0.02 0.0
0.8200000000000001 0.02 0.0
0.8300000000000001 0.02 0.0
0.84 0.02 0.0
0.85 0.02 0.0
0.86 0.02 0.0
0.87 0.02 0.0
0.88 0.02 0.0
0.89 0.02 0.0
0.9 0.02 0.0
0.91 0.02 0.0
0.92 0.02 0.0
0.93 0.02 0.0
0.9400000000000001 0.02 0.0
0.9500000000000001 0.02 0.0
0.96 0.02 0.0
0.97 0.02 0.0
0.98 0.02 0.0
0.99 0.02 0.0
1.0 0.02 0.0
0.0 0.03 0.0
0.01 0.03 0.0
0.02 0.03 0.0
0.03 0.03 0.0
0.04 0.03 0.0
0.05 0.03 0.0
0.06 0.03 0.0
0.07 0.03 0.0
0.08 0.03 0.0
0.09 0.03 0.0
0.1 0.03 0.0
0.11 0.03 0.0
0.12 0.03 0.0
0.13 0.03 0.0
0.14 0.03 0.0
0.15 0.03 0.0
0.16 0.03 0.0
0.17 0.03 0.0
0.18 0.03 0.0
0.19 0.03 0.0
0.2 0.03 0.0
0.21 0.03 0.0
0.22 0.03 0.0
0.23 0.03 0.0
0.24 0.03 0.0
0.25 0.03 0.0
0.26 0.03 0.0
0.27 0.03 0.0
0.28 0.03 0.0
0.29 0.03 0.0
0.3 0.03 0.0
0.31 0.03 0.0
0.32 0.03 0.0
0.33 0.03 0.0
0.34 0.03 0.0
0.35000000000000003 0.03 0.0
0.36 0.03 0.0
0.37 0.03 0.0
0.38 0.03 0.0
0.39 0.03 0.0
0.4 0.03 0.0
0.41000000000000003 0.03 0.0
0.42 0.03 0.0
0.43 0.03 0.0
0.44 0.03 0.0
0.45 0.03 0.0
0.46 0.03 0.0
0.47000000000000003 0.03 0.0
0.48 0.03 0.0
0.49 0.03 0.0
0.5 0.03 0.0
0.51 0.03 0.0
0.52 0.03 0.0
0.53 0.03 0.0
0.54 0.03 0.0
0.55 0.03 0.0
0.56 0.03 0.0
0.5700000000000001 0.03 0.0
0.58 0.03 0.0
0.59 0.03 0.0
0.6 0.03 0.0
0.61 0.03 0.0
0.62 0.03 0.0
0.63 0.03 0.0
0.64 0.03 0.0
0.65 0.03 0.0
0.66 0.03 0.0
0.67 0.03 0.0
0.68 0.03 0.0
0.6900000000000001 0.03 0.0
0.7000000000000001 0.03 0.0
0.71 0.03 0.0
0.72 0.03 0.0
0.73 0.03 0.0
0.74 0.03 0.0
0.75 0.03 0.0
0.76 0.03 0.0
0.77 0.03 0.0
0.78 0.03 0.0
0.79 0.03 0.0
0.8 0.03 0.0
0.81 0.03 0.0
0.8200000000000001 0.03 0.0
0.8300000000000001 0.03 0.0
0.84 0.03 0.0
0.85 0.03 0.0
0.86 0.03 0.0
0.87 0.03 0.0
0.88 0.03 0.0
0.89 0.03 0.0
0.9 0.03 0.0
0.91 0.03 0.0
0.92 0.03 0.0
0.93 0.03 0.0
0.9400000000000001 0.03 0.0
0.9500000000000001 0.03 0.0
0.96 0.03 0.0
0.97 0.03 0.0
0.98 0.03 0.0
0.99 0.03 0.0
1.0 0.03 0.0
0.0 0.04 0.0
0.01 0.04 0.0
0.02 0.04 0.0
0.03 0.04 0.0
0.04 0.04 0.0
0.05 0.04 0.0
0.06 0.04 0.0
0.07 0.04 0.0
0.08 0.04 0.0
0.09 0.04 0.0
0.1 0.04 0.0
0.11 0.04 0.0
0.12 0.04 0.0
0.13 0.04 0.0
0.14 0.04 0.0
0.15 0.04 0.0
0.16 0.04 0.0
0.17 0.04 0.0
0.18 0.04 0.0
0.19 0.04 0.0
0.2 0.04 0.0
0.21 0.04 0.0
0.22 0.04 0.0
0.23 0.04 0.0
0.24 0.04 0.0
0.25 0.04 0.0
0.26 0.04 0.0
0.27 0.04 0.0
0.28 0.04 0.0
0.29 0.04 0.0
0.3 0.04 0.0
0.31 0.04 0.0
0.32 0.04 0.0
0.33 0.04 0.0
0.34 0.04 0.0
0.35000000000000003 0.04 0.0
0.36 0.04 0.0
0.37 0.04 0.0
0.38 0.04 0.0
0.39 0.04 0.0
0.4 0.04 0.0
0.41000000000000003 0.04 0.0
0.42 0.04 0.0
0.43 0.04 0.0
0.44 0.04 0.0
0.45 0.04 0.0
0.46 0.04 0.0
0.47000000000000003 0.04 0.0
0.48 0.04 0.0
0.49 0.04 0.0
0.5 0.04 0.0
0.51 0.04 0.0
0.52 0.04 0.0
0.53 0.04 0.0
0.54 0.04 0.0
0.55 0.04 0.0
0.56 0.04 0.0
0.5700000000000001 0.04 0.0
0.58 0.04 0.0
0.59 0.04 0.0
0.6 0.04 0.0
0.61 0.04 0.0
0.62 0.04 0.0
0.63 0.04 0.0
0.64 0.04 0.0
0.65 0.04 0.0
0.66 0.04 0.0
0.67 0.04 0.0
0.68 0.04 0.0
0.6900000000000001 0.04 0.0
0.7000000000000001 0.04 0.0
0.71 0.04 0.0
0.72 0.04 0.0
0.73 0.04 0.0
0.74 0.04 0.0
0.75 0.04 0.0
0.76 0.04 0.0
0.77 0.04 0.0
0.78 0.04 0.0
0.79 0.04 0.0
0.8 0.04 0.0
0.81 0.04 0.0
0.8200000000000001 0.04 0.0
0.8300000000000001 0.04 0.0
0.84 0.04 0.0
0.85 0.04 0.0
0.86 0.04 0.0
0.87 0.04 0.0
0.88 0.04 0.0
0.89 0.04 0.0
0.9 0.04 0.0
0.91 0.04 0.0
0.92 0.04 0.0
0.93 0.04 0.0
0.9400000000000001 0.04 0.0
0.9500000000000001 0.04 0.0
0.96 0.04 0.0
0.97 0.04 0.0
0.98 0.04 0.0
0.99 0.04 0.0
1.0 0.04 0.0
0.0 0.05 0.0
0.01 0.05 0.0
0.02 0.05 0.0
0.03 0.05 0.0
0.04 0.05 0.0
0.05 0.05 0.0
0.06 0.05 0.0
0.07 0.05 0.0
0.08 0.05 0.0
0.09 0.05 0.0
0.1 0.05 0.0
0.11 0.05 0.0
0.12 0.05 0.0
0.13 0.05 0.0
0.14 0.05 0.0
0.15 0.05 0.0
0.16 0.05 0.0
0.17 0.05 0.0
0.18 0.05 0.0
0.19 0.05 0.0
0.2 0.05 0.0
0.21 0.05 0.0
0.22 0.05 0.0
0.23 0.05 0.0
0.24 0.05 0.0
0.25 0.05 0.0
0.26 0.05 0.0
0.27 0.05 0.0
0.28 0.05 0.0
0.29 0.05 0.0
0.3 0.05 0.0
0.31 0.05 0.0
0.32 0.05 0.0
0.33 0.05 0.0
0.34 0.05 0.0
0.35000000000000003 0.05 0.0
0.36 0.05 0.0
0.37 0.05 0.0
0.38 0.05 0.0
0.39 0.05 0.0
0.4 0.05 0.0
0.41000000000000003 0.05 0.0
0.42 0.05 0.0
0.43 0.05 0.0
0.44 0.05 0.0
0.45 0.05 0.0
0.46 0.05 0.0
0.47000000000000003 0.05 0.0
0.48 0.05 0.0
0.49 0.05 0.0
0.5 0.05 0.0
0.51 0.05 0.0
0.52 0.05 0.0
0.53 0.05 0.0
0.54 0.05 0.0
0.55 0.05 0.0
0.56 0.05 0.0
0.5700000000000001 0.05 0.0
0.58 0.05 0.0
0.59 0.05 0.0
0.6 0.05 0.0
0.61 0.05 0.0
0.62 0.05 0.0
0.63 0.05 0.0
0.64 0.05 0.0
0.65 0.05 0.0
0.66 0.05 0.0
0.67 0.05 0.0
0.68 0.05 0.0
0.6900000000000001 0.05 0.0
0.7000000000000001 0.05 0.0
0.71 0.05 0.0
0.72 0.05 0.0
0.73 0.05 0.0
0.74 0.05 0.0
0.75 0.05 0.0
0.76 0.05 0.0
0.77 0.05 0.0
0.78 0.05 0.0
0.79 0.05 0.0
0.8 0.05 0.0
0.81 0.05 0.0
0.8200000000000001 0.05 0.0
0.8300000000000001 0.05 0.0
0.84 0.05 0.0
0.85 0.05 0.0
0.86 0.05 0.0
0.87 0.05 0.0
0.88 0.05 0.0
0.89 0.05 0.0
0.9 0.05 0.0
0.91 0.05 0.0
0.92 0.05 0.0
0.93 0.05 0.0
0.9400000000000001 0.05 0.0
0.9500000000000001 0.05 0.0
0.96 0.05 0.0
0.97 0.05 0.0
0.98 0.05 0.0
0.99 0.05 0.0
1.0 0.05 0.0
0.0 0.06 0.0
0.01 0.06 0.0
0.02 0.06 0.0
0.03 0.06 0.0
0.04 0.06 0.0
0.05 0.06 0.0
0.06 0.06 0.0
0.07 0.06 0.0
0.08 0.06 0.0
0.09 0.06 0.0
0.1 0.06 0.0
0.11 0.06 0.0
0.12 0.06 0.0
0.13 0.06 0.0
0.14 0.06 0.0
0.15 0.06 0.0
0.16 0.06 0.0
0.17 0.06 0.0
0.18 0.06 0.0
0.19 0.06 0.0
0.2 0.06 0.0
0.21 0.06 0.0
0.22 0.06 0.0
0.23 0.06 0.0
0.24 0.06 0.0
0.25 0.06 0.0
0.26 0.06 0.0
0.27 0.06 0.0
0.28 0.06 0.0
0.29 0.06 0.0
0.3 0.06 0.0
0.31 0.06 0.0
0.32 0.06 0.0
0.33 0.06 0.0
0.34 0.06 0.0
0.35000000000000003 0.06 0.0
0.36 0.06 0.0
0.37 0.06 0.0
0.38 0.06 0.0
0.39 0.06 0.0
0.4 0.06 0.0
0.41000000000000003 0.06 0.0
0.42 0.06 0.0
0.43 0.06 0.0
0.44 0.06 0.0
0.45 0.06 0.0
0.46 0.06 0.0
[...]
POINT_DATA  10201
FIELD  FlowField  5
Density    1 10201  double
7.580028718898425
7.5327476494377485
7.418054408147702
7.27207074529799
7.106965708147783
6.930262103260057
6.753776874500824
6.595073931437096
6.474005274708443
6.405246101419655
6.389281356657044
6.406019971039951
6.414329504185506
6.359010501434842
6.187714061009365
5.878148635202408
5.459219731553862
4.99994875047933
4.571038702556153
4.213791356162889
3.9362999010831867
3.727730024028184
3.5726954157163853
3.458068437643328
3.374225938913122
3.3144303066772007
3.2740235643753284
3.249822594106975
3.2397186639183575
3.2424176612345024
3.25726001221482
3.2840607614244766
3.3228905317040196
3.3736615622413186
3.4352647246975088
3.503783285946415
3.569155897938613
3.609828047698783
3.587030423151317
3.448121471479131
3.161527742354506
2.785918123721297
2.470507524518713
2.311215687788093
2.2733984172430373
2.2870250043399363
2.3167690868257242
2.351931226094912
2.389919416237846
2.430238236181217
2.472909430418972
2.518094152787242
2.5660064951939408
2.61689586091133
2.67104590385632
2.728777787186054
2.790454579557067
2.8564853892594684
2.9273280144885265
3.0034892140865983
3.085523516804993
3.174035146726264
3.2696785804550945
3.37300269987626
3.484038296336344
3.6023927133582117
3.727412214439216
3.857916094179534
3.992167099579806
4.127988775241544
4.262924310863928
4.394465001190117
4.52037737235835
4.639132166864346
4.750519393104421
4.856480597130705
4.961761672813266
5.073448110514749
5.198677121163037
5.341202356659137
5.498824001945112
5.663398268544212
5.823683191639956
5.969419281865507
6.0942167252806785
6.196152854880136
6.276667622964331
6.338954682048271
6.386674127174096
6.42321505167315
6.451403723047397
6.473475441786697
6.49116229977048
6.505798813618209
6.51837473430683
6.529515074399336
6.539424425031264
6.54790953572364
6.554428892792985
6.558170725639666
6.5592339694666615
7.252690658664987
7.210878170439882
7.109304816944961
6.977888204816263
6.824933792232869
6.657507729987289
6.489215438668216
6.340536043934426
6.234159870726985
6.185926591197589
6.194401777559947
6.23432836491688
6.257834840983987
6.204842010596826
6.024058052589436
5.7009094546284445
5.272618076383931
4.810511781818317
4.38195976356856
4.02406343148042
3.743064274572661
3.528457584829505
3.3659201578999207
3.2432286382861992
3.151316219779385
3.083726030329795
3.035907279330822
3.00468385231801
2.987897240548582
2.984170283598347
2.992739508012574
3.0133039548576015
3.045822655221427
3.090140294602893
3.145208824392006
3.207531866857437
3.2683061032110037
3.3088387017623826
3.295510548413724
3.1817361424382744
2.935905586917026
2.6024383098670683
2.312554298308323
2.1617751251996933
2.126552574989602
2.142377381591471
2.1745356343285196
2.2122472360496594
2.2528745843653946
2.295894472238502
2.3413005295304736
2.3892220598045126
2.439837767123396
2.4933594772565972
2.5500334084822964
2.610146969939591
2.6740381217878806
2.7421059360462925
2.814820766044689
2.8927318797926374
2.9764703603167386
3.0667456285374
3.164326992342973
3.269921657796808
3.3838971572896694
3.50624834133702
3.636571545437706
3.773751652347059
3.915927941594429
4.060676134911323
4.205181675818577
4.346545990145356
4.482238905030655
4.610643574964249
4.731695029220052
4.847547901965827
4.962887431494975
5.084141511490592
5.217206176744539
5.364483154757053
5.522958874427291
5.684651592853314
5.8393804380403616
5.978302979756183
6.096242204371867
6.192022505146402
6.267394922313196
6.325585317669022
6.370155444530004
6.404358524127139
6.4308907388874115
6.451875775291201
6.468951168580077
6.483372745396468
6.496066676625316
6.507601388516736
6.518116094508506
6.527321519699794
6.534547325551614
6.538825296398281
6.540092458425964
6.5132282507540875
6.477575562167381
6.3926550718524355
6.282399422139591
6.1490660588149275
5.998861026475034
5.849473701547917
5.728163126367953
5.663514282846884
5.67158475750062
5.741899011226075
5.832526088221479
5.879550486929238
5.818026877664655
5.608098206887378
5.256150383314757
4.814470803375479
4.354733920077792
3.9349983832791535
3.5834848357390823
3.3031137227855405
3.0844208065274117
2.91541092534455
2.7856924574214874
2.687222224620295
2.613979999422336
2.5615146698625386
2.526581297710049
2.506876972251632
2.500848198336576
2.507539083820855
2.526443892438877
2.5573117056714514
2.599803333622289
2.6528327205787408
2.7133577589995035
2.774258169777167
2.8210074827515634
2.8278056489799037
2.7574169660825976
2.5783646272613296
2.3134776538168795
2.0665711491746315
1.932547962781367
1.90473590080035
1.9270967745220942
1.9660152055433295
2.010718161116434
2.058547465326972
2.108939237320704
2.1618224279741924
2.217240564786947
2.2752674484711832
2.3359928180712997
2.399527044060268
2.4660139301018433
2.535649477089729
2.6087057388424135
2.6855580515700366
2.7667121433538107
2.852825143138525
2.9447112454508164
3.0433183198570033
3.1496549140273284
3.2646560113930763
3.3890016472552587
3.5228763010753137
3.665644892151875
3.815728554246951
3.970711697202109
4.127543274396385
4.282973697435507
4.434189192899475
4.57950246621129
4.718941483123163
4.854530525970826
4.989976782017127
5.12948687852578
5.275866067854031
5.428721891726442
5.58383241453471
5.7342148469405325
5.872423111791858
5.992846850384323
6.092918059061304
6.172985434135189
6.235366166007985
6.283257832445576
6.319926734954897
6.348264679949631
6.370632227124407
6.388868906964692
6.404375328565884
6.418211207193654
6.431148105376907
6.443623935534958
6.455629034179784
6.466646082553858
6.475676956156481
6.481338718914698
6.483134975625354
5.731274981271907
5.690318686326734
5.597688696551369
5.486335798592051
5.35839416876852
5.220490490079898
5.09518797538374
5.016689102770038
5.016344219634113
5.101685801502483
5.2413765116985385
5.3700454282112595
5.413017030396444
5.315760272228545
5.063902767020972
4.687444751155273
4.246814240985005
3.80666851093844
3.412928518137843
3.085380691288219
2.8243634727502593
2.6214763163046557
2.466658977574758
2.3508222094740363
2.266462225471193
2.207639722485652
2.1697861400744562
2.1494864830849947
2.1442756741906592
2.152457326105926
2.1729394570648726
2.2050658074272063
2.2483990231197444
2.3023680628276
2.365667516602894
2.4352541850278486
2.504695793974277
2.5616334908866527
2.584438188298059
2.5404147202451273
2.397696548483913
2.169141178984496
1.9475487785974313
1.82819909347988
1.8106275192790664
1.8419749872930762
1.8896877770022242
1.943468388155548
2.000827973775529
2.0612261592491667
2.1245481598417184
2.190751405923976
2.259786203513411
2.331581032483137
2.406046752207935
2.4830909437454847
2.5626415255633925
2.6446797587663506
2.729281703607904
2.8166652992325565
2.9072365352440466
3.001622528118175
3.100678716357465
3.205453001086815
3.317085931847423
3.4366366689916212
3.5648414172351774
3.701838236715132
3.846939171886548
3.9985522813581005
4.154335027910914
4.311600194577837
4.467901476033809
4.6216320960583035
4.7724147342998
4.921075608158157
5.069089909629692
5.217581284082912
5.366233967435324
5.512661379762236
5.652651871408864
5.781271937386073
5.89431322863363
5.9893930914227544
6.0662907343858015
6.126571958412912
6.172861972693918
6.208133938194641
6.235211155600227
6.256510906713894
6.273970425012989
6.289078225452385
6.3029495509873765
6.316411127510489
6.3300546916761355
6.344172953544701
6.358583931074005
6.372474094154798
6.384358316685811
6.392194627327779
6.39481689412175
5.054937478356001
4.997443190133622
4.87220357787012
4.736212057471873
4.599898760056059
4.473024678849827
4.382573613423346
4.364835369663974
4.4430358985092075
4.602537837710385
4.78440422853194
4.908327015704303
4.908393049134584
4.756371824325633
4.465457943221224
4.080627208575534
3.660890138861843
3.259294843589318
2.909628303251843
2.6247314580032666
2.403001834907511
2.236311166830573
2.1151582613434328
2.0307470335644497
1.9755789251078626
1.9436191990656897
1.9302328448341537
1.9320034802194332
1.9465161401116622
1.9721442981430122
2.0078515479786683
2.052993487542583
2.1070825095938326
2.169449627602649
2.2387180702296265
2.311996007562533
2.3836285473621244
2.4431059484907216
2.471486727728611
2.4379312326695572
2.30937768275391
2.09526141903297
1.8872111855517486
1.7804968268623695
1.7732627988370175
1.8128050716675297
1.868168614613348
1.930039067903527
1.9962879468908978
2.066490676397502
2.1405585981900934
2.2184268860547713
2.2999813013764916
2.3850403435337535
2.4733547600016306
2.5646182741446784
2.6584899857472917
2.7546294358424412
2.852743827661038
2.9526442971916467
3.0543050130359264
3.157915536446905
3.2639139568692257
3.372986380976523
3.48601842734687
3.6039895969153215
3.7278067111441056
3.858078782676329
3.9948854644464014
4.137635396648606
4.285087085472551
4.435550400946047
4.587226351861389
4.738560459383012
4.888443103663624
5.036140646533654
5.180952967813102
5.321741286783926
5.456579343682572
5.58276751242432
5.697283845404069
5.797507667667616
5.881894664445966
5.95031802706873
6.0039845106900245
6.0450401521990695
6.0760727801730905
6.099683955046617
6.118210403547927
6.133594826035648
6.147365965443786
6.160680516265917
6.174388200798466
6.189097956980752
6.205224749568131
6.222903382751118
6.241734054045709
6.260496016755178
6.276993699426402
6.288211962172859
6.292084130579637
4.492959432741095
4.411906643025124
4.239773335038539
4.069162175353801
3.9252210998665826
3.8216171224212805
3.7848261141795136
3.8418456901425366
3.9933366487477375
4.195116358333883
4.369886386066313
4.443893213735793
4.3774795529768324
4.171632599416209
3.8585425572397805
3.4873964637116295
3.1091729821303113
2.7637167770375837
2.4735662644768817
2.245402682876513
2.0755741557332805
1.955548594521893
1.8756484654538301
1.8270069661835582
1.8022605763839792
1.7956916256649156
1.8030962807952087
1.8215369985792673
1.8490655629304222
1.8844665277116093
1.9270307944544283
1.976342388562214
2.032045308470999
2.093548559370531
2.159619438847185
2.227800936591537
2.293468856897305
2.347875210945328
2.374050252208888
2.3421846883167454
2.218648018836418
2.012593185264753
1.8162507568809694
1.721813305346274
1.7231414270679424
1.76801878623614
1.8279151809707646
1.8947763356843637
1.966925348601697
2.0441221115247306
2.126379266656501
2.2136935253817516
2.3059764104739044
2.4030302201667464
2.5045392050689514
2.6100725108756198
2.7191008019200034
2.831028658624163
2.9452429462796323
3.0611739663207054
3.1783631819533253
3.2965294063637094
3.415619333071453
3.5358281225524824
3.657580354576805
3.78146444671321
3.908122056030865
4.038104417151125
4.171716194382659
4.308877251414667
4.449036543484901
4.591170880538159
4.7338965609958095
4.875637321137847
5.014748592634961
5.149551659402936
5.278285891778677
5.39905354190306
5.50985909392589
5.608804352138754
5.694408649282925
5.765937307414559
5.8235998472715425
5.8685371211073765
5.90261263081776
5.928096518078702
5.947347414865123
5.962566641993476
5.975652221131491
5.988143080463568
6.001226520432538
6.0157791527632885
6.032415817548123
6.0515327568907855
6.073341087566314
6.0977512963387746
6.1240278115180935
6.150365447275293
6.173617886803724
6.189543963843073
6.195096222627434
4.020894580287198
3.9134849697999767
3.6925481428457023
3.494518335700308
3.3595409679822685
3.299827053676807
3.331006982073475
3.457845501469528
3.6512589583248336
3.84587006761499
3.9675741894813603
3.9676226676132855
3.836161763726925
3.595114686647168
3.284414451535061
2.9491755587099977
2.6290208290161683
2.3510815598437733
2.1282117034684203
1.9616433568068312
1.8454516522304933
1.7705769735247472
1.7275625273519326
1.7081093673659336
1.705706857691895
1.7156345867611678
1.734687598223824
1.7608229199610892
1.7928317600825403
1.8300659988188774
1.8722143816149304
1.9191051482258994
1.9705063396474833
2.025898856231266
2.084201493694985
2.143386334269141
2.199698670041939
2.2456286897079947
2.2654322150203288
2.2301959051991527
2.1073218853432825
1.9079461712596508
1.7239765285260302
1.6411506621820853
1.6482509122170184
1.6948309394908623
1.7553691331052828
1.8231292511537942
1.8968944362399387
1.9766435374015567
2.0625482880948276
2.1547432804711755
2.253257933245629
2.357983563239079
2.4686525633684617
2.584828662790826
2.705911808386076
2.83116140170684
2.959739860104298
3.0907751959743632
3.2234369375486795
3.357014951697053
3.4909869992741167
3.6250595214387915
3.7591680926733564
3.8934295022139658
4.0280521485966085
4.163231248456494
4.2990383348191346
4.4353054592222945
4.571531557254066
4.706838448282885
4.839984357080498
4.969429572374269
5.0934423964302695
5.210221504148251
5.318015022683668
5.415244172632059
5.500647455315772
5.57344140268969
5.633465017134305
5.681258278766375
5.718036295558896
5.74555539222813
5.765904971702911
5.781279048203683
5.793777561909353
5.805267209154768
5.81730660905278
5.83112360947661
5.847628906654506
5.867448153225389
5.890954315812665
5.918288360576147
5.949380825195149
5.983797163475392
6.020303764486483
6.056361783686318
6.0877828011322945
6.109110161950948
6.11651930874632
3.622137293083165
3.4904201044308003
3.2307017061551093
3.0245867898624095
2.9200243576840377
2.9177270122494074
3.0120581006296367
3.179857416285923
3.369412991506974
3.5138607967392588
3.560330348039738
3.4892379577970223
3.312960476560209
3.063307028141991
2.7789527587296834
2.4961510938608646
2.2425204347165404
2.0341702159441386
1.876254790573258
1.7658582802465812
1.6955383849269554
1.6563323439688658
1.639797643615003
1.6390868196866026
1.6492238030400737
1.6669006704002265
1.6900974844950027
1.7176892623665374
1.7491231098607343
1.7841766835228197
1.8227752970188016
1.8648385718350429
1.910134692195209
1.9581316532466289
2.0078325924220692
2.0575062186716315
2.1039380320277186
2.140267278891828
2.151385595842538
2.1094072593258226
1.9842475807292523
1.7907076304131326
1.6193898529085275
1.5470329398694935
1.5571047637651059
1.601994812096422
1.6594690201326214
1.7240491867075813
1.7949356211663607
1.8723217414144284
1.9565612094918547
2.0479731303537507
2.1467755154661496
2.253043866385702
2.366677276815065
2.4873726845792747
2.6146121021430906
2.747668220707142
2.885632443661501
3.02746634972225
3.1720730837311697
3.318379951600304
3.465418907360019
3.612389227937549
3.7586877400386154
3.9038969246639565
4.047729402215286
4.189936851733174
4.330200616415863
4.468028108382195
4.602686481393793
4.733188222620372
4.85830703037911
4.97663140521965
5.0866703595450895
5.186990486777521
5.276366078407586
5.353924741894523
5.419271215696883
5.4725715683687
5.514579796910702
5.546596691169241
5.570363898715356
5.587909593224335
5.601373684267911
5.612843161513112
5.624221681851617
5.637144069104531
5.652929354249782
5.67256319614874
5.696706341015028
5.725715191853448
5.759661883404287
5.798363343347777
5.841403385129027
5.887915540380829
5.936083561193513
5.982608615195657
6.0223462986441145
6.048879509200228
6.058005973268541
3.2912632791144856
3.1413490855817496
2.859621193239935
2.665614278510007
2.604208472119284
2.655561499273512
2.7884434948721317
2.9575598882419967
3.1052627881074617
3.179867272702997
3.1547972835853213
3.033283632958523
2.839411197550389
2.60578968919674
2.3644210003676074
2.141178639038495
1.9529962397315157
1.8074555955147278
1.704350347921798
1.6383313961963386
1.6016589292538708
1.586402578852576
1.5858206126258863
1.5949249076697796
1.6104295433174245
1.6303812195335827
1.6537365564764832
1.680017273081962
1.7090585738789579
1.7408317320944016
1.7753154907895436
1.812391254055812
1.8517494514570645
1.8928065408864654
1.9346127853038966
1.9756170651524254
2.0128494182028907
2.039625017201725
2.041041555521856
1.9902610046007545
1.860582824934526
1.6718560973132175
1.5130636029746927
1.450199827789179
1.461214757173768
1.5020019221248648
1.5536842065887817
1.6119287053252687
1.6762760958208913
1.7470881001298895
1.8248741750155035
1.910131933491984
2.0032861876120642
2.1046438401871015
2.214350714665035
2.332351389380004
2.4583571431916824
2.5918283668181457
2.73197739868673
2.8777956159353653
3.028104768521602
3.181627514700988
3.33706703812216
3.4931820069408386
3.6488423700466326
3.803054291880545
3.954948695787305
4.103736248698416
4.248640343611435
4.388826481807488
4.523349171845731
4.651133795166498
4.771003434120883
4.881751880706522
4.982246674024891
5.071545491057625
5.149017029042439
5.214447964215383
5.268115902886805
5.310815054168779
5.343828258494272
5.368847737694846
5.3878557036620975
5.402982275278117
5.416360461706413
5.429996011157835
5.445664417336167
5.464840185813603
5.488657712183878
5.517898192220713
5.552991094677852
5.594021280800309
5.64074318881419
5.692627140330734
5.748871970316367
5.808127146338613
5.867985486957649
5.924467815929637
5.971681674264685
6.00262694606239
6.013143505683569
3.0245105468386626
2.8636247287970202
2.5758062720987254
2.406458400703427
2.3873673445837738
2.4739923186131234
2.613718660159847
2.7523010538698096
2.840826274712913
2.8488602051304044
2.7717569184203046
2.6260689687495034
2.4386714471722293
2.2374243024424953
2.0457188327703726
1.8799165740128894
1.7486933673310474
1.6538402773097882
1.5920650855158542
1.5572049146563995
1.5422848213674978
1.541019946078938
1.5485948352310748
1.5617942590338316
1.5787276812698525
1.5984221563282182
1.6204571621583266
1.6447002625908071
1.6711417001332096
1.699785282899981
1.730563644489211
1.763271063453447
1.797511396836943
1.8326611319772166
1.867807913753514
1.9014860649830627
1.9307422721096374
1.9487265478291562
1.940375659084142
1.8796796233714055
1.743813617700126
1.5590663749485758
1.4128635869519173
1.3590930520645261
1.3700453979758433
1.4055691654102145
1.4500859079635613
1.5002723231443178
1.5559166483563716
1.6174744136611479
1.6855438863315548
1.7607425710021265
1.843657262339006
1.9348026237547535
2.034576797762339
2.14321435366528
2.260740557254661
2.386932779534971
2.521295618320459
2.663055701468708
2.811179899228953
2.96441692595916
3.1213577466642985
3.2805059731336073
3.440346823140313
3.5994031886274547
3.756270268910473
3.9096256802576095
4.0582186874094575
4.200848560125398
4.336346111639972
4.463571937966175
4.581440808366526
4.688975202241016
4.785381793695111
4.870138057759385
4.943074010101188
5.004434283561038
5.05490882326979
5.09562567287149
5.128105465468892
5.154180989371748
5.175889803292752
5.195352967306206
5.2146531107627405
5.235722521679194
5.260248035990802
5.289597145545989
5.3247715022079625
5.366385879327807
5.4146591297951625
5.469415457013022
5.5301054835615595
5.5958645423772015
5.665482686159724
5.737101468883815
5.807774691969857
5.8730002741413
5.926417963538505
5.960824543010591
5.9723880477941425
2.814203178501443
2.6483553806986517
2.3652122423003186
2.2234538386339144
2.235547303423985
2.3344705992744306
2.455865681122965
2.5487169296553027
2.579656969985795
2.5376548171624993
2.432252433120865
2.284870276848007
2.119591352498669
1.9573755401706423
1.8134969728706527
1.696884768792559
1.6105911367307342
1.5530218211258133
1.519602978415531
1.5045188949163404
1.5021607767498009
1.5080277727235507
1.5190248703489662
1.5333110891053703
1.5499457989185879
1.5685358764161992
1.5889753593654523
1.6112743742163653
1.6354510694014377
1.6614679465546447
1.689182660527342
1.7183068483602737
1.748384829027038
1.778782166583852
1.8086185138146822
1.8364334014156503
1.85911654682554
1.8693859976480003
1.8516412406898244
1.7803620517490457
1.6371301965643408
1.4562059435762271
1.3232650957972556
1.2787293624803993
1.2894397245296974
1.3196374288771235
1.356890917915074
1.3987403489305181
1.445132776542899
1.4965405633791398
1.5535705120879584
1.6168747541295905
1.6871149391063591
1.764930385620994
1.850900628315233
1.9455014507475745
2.0490563812430125
2.161687509043398
2.283270964761682
2.41340322333134
2.5513841106540625
2.6962207761527135
2.8466540412886365
3.001204977584096
3.1582361459068857
3.3160195448768706
3.47280269840836
3.6268658060746057
3.776566185083183
3.920370567724364
4.056879867001399
4.1848529295174615
4.303235445224687
4.411197620158172
4.5081792321157526
4.593936414949046
4.668582282252554