# vtk DataFile Version 3.0 
shock_diffraction_time_series_303_.vtk
ASCII
DATASET UNSTRUCTURED_GRID
POINTS         10201 double
0.0 0.0 0.0
0.01 0.0 0.0
0.02 0.0 0.0
0.03 0.0 0.0
0.04 0.0 0.0
0.05 0.0 0.0
0.06 0.0 0.0
0.07 0.0 0.0
0.08 0.0 0.0
0.09 0.0 0.0
0.1 0.0 0.0
0.11 0.0 0.0
0.12 0.0 0.0
0.13 0.0 0.0
0.14 0.0 0.0
0.15 0.0 0.0
0.16 0.0 0.0
0.17 0.0 0.0
0.18 0.0 0.0
0.19 0.0 0.0
0.2 0.0 0.0
0.21 0.0 0.0
0.22 0.0 0.0
0.23 0.0 0.0
0.24 0.0 0.0
0.25 0.0 0.0
0.26 0.0 0.0
0.27 0.0 0.0
0.28 0.0 0.0
0.29 0.0 0.0
0.3 0.0 0.0
0.31 0.0 0.0
0.32 0.0 0.0
0.33 0.0 0.0
0.34 0.0 0.0
0.35000000000000003 0.0 0.0
0.36 0.0 0.0
0.37 0.0 0.0
0.38 0.0 0.0
0.39 0.0 0.0
0.4 0.0 0.0
0.41000000000000003 0.0 0.0
0.42 0.0 0.0
0.43 0.0 0.0
0.44 0.0 0.0
0.45 0.0 0.0
0.46 0.0 0.0
0.47000000000000003 0.0 0.0
0.48 0.0 0.0
0.49 0.0 0.0
0.5 0.0 0.0
0.51 0.0 0.0
0.52 0.0 0.0
0.53 0.0 0.0
0.54 0.0 0.0
0.55 0.0 0.0
0.56 0.0 0.0
0.5700000000000001 0.0 0.0
0.58 0.0 0.0
0.59 0.0 0.0
0.6 0.0 0.0
0.61 0.0 0.0
0.62 0.0 0.0
0.63 0.0 0.0
0.64 0.0 0.0
0.65 0.0 0.0
0.66 0.0 0.0
0.67 0.0 0.0
0.68 0.0 0.0
0.6900000000000001 0.0 0.0
0.7000000000000001 0.0 0.0
0.71 0.0 0.0
0.72 0.0 0.0
0.73 0.0 0.0
0.74 0.0 0.0
0.75 0.0 0.0
0.76 0.0 0.0
0.77 0.0 0.0
0.78 0.0 0.0
0.79 0.0 0.0
0.8 0.0 0.0
0.81 0.0 0.0
0.8200000000000001 0.0 0.0
0.8300000000000001 0.0 0.0
0.84 0.0 0.0
0.85 0.0 0.0
0.86 0.0 0.0
0.87 0.0 0.0
0.88 0.0 0.0
0.89 0.0 0.0
0.9 0.0 0.0
0.91 0.0 0.0
0.92 0.0 0.0
0.93 0.0 0.0
0.9400000000000001 0.0 0.0
0.9500000000000001 0.0 0.0
0.96 0.0 0.0
0.97 0.0 0.0
0.98 0.0 0.0
0.99 0.0 0.0
1.0 0.0 0.0
0.0 0.01 0.0
0.01 0.01 0.0
0.02 0.01 0.0
0.03 0.01 0.0
0.04 0.01 0.0
0.05 0.01 0.0
0.06 0.01 0.0
0.07 0.01 0.0
0.08 0.01 0.0
0.09 0.01 0.0
0.1 0.01 0.0
0.11 0.01 0.0
0.12 0.01 0.0
0.13 0.01 0.0
0.14 0.01 0.0
0.15 0.01 0.0
0.16 0.01 0.0
0.17 0.01 0.0
0.18 0.01 0.0
0.19 0.01 0.0
0.2 0.01 0.0
0.21 0.01 0.0
0.22 0.01 0.0
0.23 0.01 0.0
0.24 0.01 0.0
0.25 0.01 0.0
0.26 0.01 0.0
0.27 0.01 0.0
0.28 0.01 0.0
0.29 0.01 0.0
0.3 0.01 0.0
0.31 0.01 0.0
0.32 0.01 0.0
0.33 0.01 0.0
0.34 0.01 0.0
0.35000000000000003 0.01 0.0
0.36 0.01 0.0
0.37 0.01 0.0
0.38 0.01 0.0
0.39 0.01 0.0
0.4 0.01 0.0
0.41000000000000003 0.01 0.0
0.42 0.01 0.0
0.43 0.01 0.0
0.44 0.01 0.0
0.45 0.01 0.0
0.46 0.01 0.0
0.47000000000000003 0.01 0.0
0.48 0.01 0.0
0.49 0.01 0.0
0.5 0.01 0.0
0.51 0.01 0.0
0.52 0.01 0.0
0.53 0.01 0.0
0.54 0.01 0.0
0.55 0.01 0.0
0.56 0.01 0.0
0.5700000000000001 0.01 0.0
0.58 0.01 0.0
0.59 0.01 0.0
0.6 0.01 0.0
0.61 0.01 0.0
0.62 0.01 0.0
0.63 0.01 0.0
0.64 0.01 0.0
0.65 0.01 0.0
0.66 0.01 0.0
0.67 0.01 0.0
0.68 0.01 0.0
0.6900000000000001 0.01 0.0
0.7000000000000001 0.01 0.0
0.71 0.01 0.0
0.72 0.01 0.0
0.73 0.01 0.0
0.74 0.01 0.0
0.75 0.01 0.0
0.76 0.01 0.0
0.77 0.01 0.0
0.78 0.01 0.0
0.79 0.01 0.0
0.8 0.01 0.0
0.81 0.01 0.0
0.8200000000000001 0.01 0.0
0.8300000000000001 0.01 0.0
0.84 0.01 0.0
0.85 0.01 0.0
0.86 0.01 0.0
0.87 0.01 0.0
0.88 0.01 0.0
0.89 0.01 0.0
0.9 0.01 0.0
0.91 0.01 0.0
0.92 0.01 0.0
0.93 0.01 0.0
0.9400000000000001 0.01 0.0
0.9500000000000001 0.01 0.0
0.96 0.01 0.0
0.97 0.01 0.0
0.98 0.01 0.0
0.99 0.01 0.0
1.0 0.01 0.0
0.0 0.02 0.0
0.01 0.02 0.0
0.02 0.02 0.0
0.03 0.02 0.0
0.04 0.02 0.0
0.05 0.02 0.0
0.06 0.02 0.0
0.07 0.02 0.0
0.08 0.02 0.0
0.09 0.02 0.0
0.1 0.02 0.0
0.11 0.02 0.0
0.12 0.02 0.0
0.13 0.02 0.0
0.14 0.02 0.0
0.15 0.02 0.0
0.16 0.02 0.0
0.17 0.02 0.0
0.18 0.02 0.0
0.19 0.02 0.0
0.2 0.02 0.0
0.21 0.02 0.0
0.22 0.02 0.0
0.23 0.02 0.0
0.24 0.02 0.0
0.25 0.02 0.0
0.26 0.02 0.0
0.27 0.02 0.0
0.28 0.02 0.0
0.29 0.02 0.0
0.3 0.02 0.0
0.31 0.02 0.0
0.32 0.02 0.0
0.33 0.02 0.0
0.34 0.02 0.0
0.35000000000000003 0.02 0.0
0.36 0.02 0.0
0.37 0.02 0.0
0.38 0.02 0.0
0.39 0.02 0.0
0.4 0.02 0.0
0.41000000000000003 0.02 0.0
0.42 0.02 0.0
0.43 0.02 0.0
0.44 0.02 0.0
0.45 0.02 0.0
0.46 0.02 0.0
0.47000000000000003 0.02 0.0
0.48 0.02 0.0
0.49 0.02 0.0
0.5 0.02 0.0
0.51 0.02 0.0
0.52 0.02 0.0
0.53 0.02 0.0
0.54 0.02 0.0
0.55 0.02 0.0
0.56 0.02 0.0
0.5700000000000001 0.02 0.0
0.58 0.02 0.0
0.59 0.02 0.0
0.6 0.02 0.0
0.61 0.02 0.0
0.62 0.02 0.0
0.63 0.02 0.0
0.64 0.02 0.0
0.65 0.02 0.0
0.66 0.02 0.0
0.67 0.02 0.0
0.68 0.02 0.0
0.6900000000000001 0.02 0.0
0.7000000000000001 0.02 0.0
0.71 0.02 0.0
0.72 0.02 0.0
0.73 0.02 0.0
0.74 0.02 0.0
0.75 0.02 0.0
0.76 0.02 0.0
0.77 0.02 0.0
0.78 0.02 0.0
0.79 0.02 0.0
0.8 0.02 0.0
0.81 0.02 0.0
0.8200000000000001 0.02 0.0
0.8300000000000001 0.02 0.0
0.84 0.02 0.0
0.85 0.02 0.0
0.86 0.02 0.0
0.87 0.02 0.0
0.88 0.02 0.0
0.89 0.02 0.0
0.9 0.02 0.0
0.91 0.02 0.0
0.92 0.02 0.0
0.93 0.02 0.0
0.9400000000000001 0.02 0.0
0.9500000000000001 0.02 0.0
0.96 0.02 0.0
0.97 0.02 0.0
0.98 0.02 0.0
0.99 0.02 0.0
1.0 0.02 0.0
0.0 0.03 0.0
0.01 0.03 0.0
0.02 0.03 0.0
0.03 0.03 0.0
0.04 0.03 0.0
0.05 0.03 0.0
0.06 0.03 0.0
0.07 0.03 0.0
0.08 0.03 0.0
0.09 0.03 0.0
0.1 0.03 0.0
0.11 0.03 0.0
0.12 0.03 0.0
0.13 0.03 0.0
0.14 0.03 0.0
0.15 0.03 0.0
0.16 0.03 0.0
0.17 0.03 0.0
0.18 0.03 0.0
0.19 0.03 0.0
0.2 0.03 0.0
0.21 0.03 0.0
0.22 0.03 0.0
0.23 0.03 0.0
0.24 0.03 0.0
0.25 0.03 0.0
0.26 0.03 0.0
0.27 0.03 0.0
0.28 0.03 0.0
0.29 0.03 0.0
0.3 0.03 0.0
0.31 0.03 0.0
0.32 0.03 0.0
0.33 0.03 0.0
0.34 0.03 0.0
0.35000000000000003 0.03 0.0
0.36 0.03 0.0
0.37 0.03 0.0
0.38 0.03 0.0
0.39 0.03 0.0
0.4 0.03 0.0
0.41000000000000003 0.03 0.0
0.42 0.03 0.0
0.43 0.03 0.0
0.44 0.03 0.0
0.45 0.03 0.0
0.46 0.03 0.0
0.47000000000000003 0.03 0.0
0.48 0.03 0.0
0.49 0.03 0.0
0.5 0.03 0.0
0.51 0.03 0.0
0.52 0.03 0.0
0.53 0.03 0.0
0.54 0.03 0.0
0.55 0.03 0.0
0.56 0.03 0.0
0.5700000000000001 0.03 0.0
0.58 0.03 0.0
0.59 0.03 0.0
0.6 0.03 0.0
0.61 0.03 0.0
0.62 0.03 0.0
0.63 0.03 0.0
0.64 0.03 0.0
0.65 0.03 0.0
0.66 0.03 0.0
0.67 0.03 0.0
0.68 0.03 0.0
0.6900000000000001 0.03 0.0
0.7000000000000001 0.03 0.0
0.71 0.03 0.0
0.72 0.03 0.0
0.73 0.03 0.0
0.74 0.03 0.0
0.75 0.03 0.0
0.76 0.03 0.0
0.77 0.03 0.0
0.78 0.03 0.0
0.79 0.03 0.0
0.8 0.03 0.0
0.81 0.03 0.0
0.8200000000000001 0.03 0.0
0.8300000000000001 0.03 0.0
0.84 0.03 0.0
0.85 0.03 0.0
0.86 0.03 0.0
0.87 0.03 0.0
0.88 0.03 0.0
0.89 0.03 0.0
0.9 0.03 0.0
0.91 0.03 0.0
0.92 0.03 0.0
0.93 0.03 0.0
0.9400000000000001 0.03 0.0
0.9500000000000001 0.03 0.0
0.96 0.03 0.0
0.97 0.03 0.0
0.98 0.03 0.0
0.99 0.03 0.0
1.0 0.03 0.0
0.0 0.04 0.0
0.01 0.04 0.0
0.02 0.04 0.0
0.03 0.04 0.0
0.04 0.04 0.0
0.05 0.04 0.0
0.06 0.04 0.0
0.07 0.04 0.0
0.08 0.04 0.0
0.09 0.04 0.0
0.1 0.04 0.0
0.11 0.04 0.0
0.12 0.04 0.0
0.13 0.04 0.0
0.14 0.04 0.0
0.15 0.04 0.0
0.16 0.04 0.0
0.17 0.04 0.0
0.18 0.04 0.0
0.19 0.04 0.0
0.2 0.04 0.0
0.21 0.04 0.0
0.22 0.04 0.0
0.23 0.04 0.0
0.24 0.04 0.0
0.25 0.04 0.0
0.26 0.04 0.0
0.27 0.04 0.0
0.28 0.04 0.0
0.29 0.04 0.0
0.3 0.04 0.0
0.31 0.04 0.0
0.32 0.04 0.0
0.33 0.04 0.0
0.34 0.04 0.0
0.35000000000000003 0.04 0.0
0.36 0.04 0.0
0.37 0.04 0.0
0.38 0.04 0.0
0.39 0.04 0.0
0.4 0.04 0.0
0.41000000000000003 0.04 0.0
0.42 0.04 0.0
0.43 0.04 0.0
0.44 0.04 0.0
0.45 0.04 0.0
0.46 0.04 0.0
0.47000000000000003 0.04 0.0
0.48 0.04 0.0
0.49 0.04 0.0
0.5 0.04 0.0
0.51 0.04 0.0
0.52 0.04 0.0
0.53 0.04 0.0
0.54 0.04 0.0
0.55 0.04 0.0
0.56 0.04 0.0
0.5700000000000001 0.04 0.0
0.58 0.04 0.0
0.59 0.04 0.0
0.6 0.04 0.0
0.61 0.04 0.0
0.62 0.04 0.0
0.63 0.04 0.0
0.64 0.04 0.0
0.65 0.04 0.0
0.66 0.04 0.0
0.67 0.04 0.0
0.68 0.04 0.0
0.6900000000000001 0.04 0.0
0.7000000000000001 0.04 0.0
0.71 0.04 0.0
0.72 0.04 0.0
0.73 0.04 0.0
0.74 0.04 0.0
0.75 0.04 0.0
0.76 0.04 0.0
0.77 0.04 0.0
0.78 0.04 0.0
0.79 0.04 0.0
0.8 0.04 0.0
0.81 0.04 0.0
0.8200000000000001 0.04 0.0
0.8300000000000001 0.04 0.0
0.84 0.04 0.0
0.85 0.04 0.0
0.86 0.04 0.0
0.87 0.04 0.0
0.88 0.04 0.0
0.89 0.04 0.0
0.9 0.04 0.0
0.91 0.04 0.0
0.92 0.04 0.0
0.93 0.04 0.0
0.9400000000000001 0.04 0.0
0.9500000000000001 0.04 0.0
0.96 0.04 0.0
0.97 0.04 0.0
0.98 0.04 0.0
0.99 0.04 0.0
1.0 0.04 0.0
0.0 0.05 0.0
0.01 0.05 0.0
0.02 0.05 0.0
0.03 0.05 0.0
0.04 0.05 0.0
0.05 0.05 0.0
0.06 0.05 0.0
0.07 0.05 0.0
0.08 0.05 0.0
0.09 0.05 0.0
0.1 0.05 0.0
0.11 0.05 0.0
0.12 0.05 0.0
0.13 0.05 0.0
0.14 0.05 0.0
0.15 0.05 0.0
0.16 0.05 0.0
0.17 0.05 0.0
0.18 0.05 0.0
0.19 0.05 0.0
0.2 0.05 0.0
0.21 0.05 0.0
0.22 0.05 0.0
0.23 0.05 0.0
0.24 0.05 0.0
0.25 0.05 0.0
0.26 0.05 0.0
0.27 0.05 0.0
0.28 0.05 0.0
0.29 0.05 0.0
0.3 0.05 0.0
0.31 0.05 0.0
0.32 0.05 0.0
0.33 0.05 0.0
0.34 0.05 0.0
0.35000000000000003 0.05 0.0
0.36 0.05 0.0
0.37 0.05 0.0
0.38 0.05 0.0
0.39 0.05 0.0
0.4 0.05 0.0
0.41000000000000003 0.05 0.0
0.42 0.05 0.0
0.43 0.05 0.0
0.44 0.05 0.0
0.45 0.05 0.0
0.46 0.05 0.0
0.47000000000000003 0.05 0.0
0.48 0.05 0.0
0.49 0.05 0.0
0.5 0.05 0.0
0.51 0.05 0.0
0.52 0.05 0.0
0.53 0.05 0.0
0.54 0.05 0.0
0.55 0.05 0.0
0.56 0.05 0.0
0.5700000000000001 0.05 0.0
0.58 0.05 0.0
0.59 0.05 0.0
0.6 0.05 0.0
0.61 0.05 0.0
0.62 0.05 0.0
0.63 0.05 0.0
0.64 0.05 0.0
0.65 0.05 0.0
0.66 0.05 0.0
0.67 0.05 0.0
0.68 0.05 0.0
0.6900000000000001 0.05 0.0
0.7000000000000001 0.05 0.0
0.71 0.05 0.0
0.72 0.05 0.0
0.73 0.05 0.0
0.74 0.05 0.0
0.75 0.05 0.0
0.76 0.05 0.0
0.77 0.05 0.0
0.78 0.05 0.0
0.79 0.05 0.0
0.8 0.05 0.0
0.81 0.05 0.0
0.8200000000000001 0.05 0.0
0.8300000000000001 0.05 0.0
0.84 0.05 0.0
0.85 0.05 0.0
0.86 0.05 0.0
0.87 0.05 0.0
0.88 0.05 0.0
0.89 0.05 0.0
0.9 0.05 0.0
0.91 0.05 0.0
0.92 0.05 0.0
0.93 0.05 0.0
0.9400000000000001 0.05 0.0
0.9500000000000001 0.05 0.0
0.96 0.05 0.0
0.97 0.05 0.0
0.98 0.05 0.0
0.99 0.05 0.0
1.0 0.05 0.0
0.0 0.06 0.0
0.01 0.06 0.0
0.02 0.06 0.0
0.03 0.06 0.0
0.04 0.06 0.0
0.05 0.06 0.0
0.06 0.06 0.0
0.07 0.06 0.0
0.08 0.06 0.0
0.09 0.06 0.0
0.1 0.06 0.0
0.11 0.06 0.0
0.12 0.06 0.0
0.13 0.06 0.0
0.14 0.06 0.0
0.15 0.06 0.0
0.16 0.06 0.0
0.17 0.06 0.0
0.18 0.06 0.0
0.19 0.06 0.0
0.2 0.06 0.0
0.21 0.06 0.0
0.22 0.06 0.0
0.23 0.06 0.0
0.24 0.06 0.0
0.25 0.06 0.0
0.26 0.06 0.0
0.27 0.06 0.0
0.28 0.06 0.0
0.29 0.06 0.0
0.3 0.06 0.0
0.31 0.06 0.0
0.32 0.06 0.0
0.33 0.06 0.0
0.34 0.06 0.0
0.35000000000000003 0.06 0.0
0.36 0.06 0.0
0.37 0.06 0.0
0.38 0.06 0.0
0.39 0.06 0.0
0.4 0.06 0.0
0.41000000000000003 0.06 0.0
0.42 0.06 0.0
0.43 0.06 0.0
0.44 0.06 0.0
0.45 0.06 0.0
0.46 0.06 0.0
[...]
POINT_DATA  10201
FIELD  FlowField  4
Density    1 10201  double
1.0000264652196544
1.0000301815113803
1.000041290506327
1.0000611110746855
1.000093348975402
1.0001435352361892
1.0002186580898313
1.0003264021733482
1.0004735985573499
1.0006637706074675
1.0008940729700115
1.001152503328564
1.0014167848621547
1.0016562276605434
1.0018369645621257
1.001929592414875
1.001916923197859
1.0017990210473655
1.0015935277418695
1.0013311189284706
1.0010477882940734
1.0007766359167571
1.000541703572427
1.0003553399171694
1.000219089846771
1.0001269018971275
1.000069017718424
1.0000352274962592
1.0000168661673223
1.000007571027254
1.000003184924184
1.000001255084324
1.0000004631617387
1.0000001600228752
1.0000000517593395
1.0000000156748108
1.0000000044460513
1.000000001181895
1.0000000002947345
1.0000000000690403
1.0000000000152172
1.0000000000031621
1.0000000000006206
1.000000000000115
1.0000000000000195
1.000000000000003
1.0000000000000004
1.0
1.0
1.0
1.0
1.0
1.0
1.0
1.0
1.0
1.0
1.0
1.0
1.0
1.0
1.0
1.0
1.0
1.0
1.0
1.0
1.0
1.0
1.0
1.0
1.0
1.0
1.0
1.0
1.0
1.0
1.0
1.0
1.0
1.0
1.0
1.0
1.0
1.0
1.0
1.0
1.0
1.0
1.0
1.0
1.0
1.0
1.0
1.0
1.0
1.0
1.0
1.0
1.0
1.0
1.0000932957977966
1.0001063995399444
1.0001453422747417
1.0002146914358936
1.0003280041671496
1.0005057614686155
1.0007743391253205
1.0011636240548174
1.0017016200807345
1.0024054448716362
1.0032696479206442
1.00425504206336
1.00528336601095
1.006242846234839
1.0070061177042722
1.0074570689373155
1.007518972073893
1.0071746696550519
1.0064719636684545
1.005512480959462
1.0044276952348665
1.0033494338345577
1.002383555949683
1.001594141537957
1.001001293952103
1.000590331494522
1.0003265476984895
1.0001694141413149
1.0000824023085215
1.0000375612515104
1.0000160386761479
1.0000064127588717
1.000002399981502
1.0000008404897516
1.0000002753906219
1.0000000844237165
1.0000000242204565
1.0000000065061836
1.0000000016378003
1.0000000003868217
1.0000000000858569
1.0000000000179443
1.0000000000035396
1.0000000000006606
1.0000000000001168
1.0000000000000193
1.000000000000003
1.0000000000000004
1.0
1.0
1.0
1.0
1.0
1.0
1.0
1.0
1.0
1.0
1.0
1.0
1.0
1.0
1.0
1.0
1.0
1.0
1.0
1.0
1.0
1.0
1.0
1.0
1.0
1.0
1.0
1.0
1.0
1.0
1.0
1.0
1.0
1.0
1.0
1.0
1.0
1.0
1.0
1.0
1.0
1.0
1.0
1.0
1.0
1.0
1.0
1.0
1.0
1.0
1.0
1.0
1.0
1.0005660626965804
1.0006452511788075
1.0008784921966287
1.0012916496456838
1.00196764983208
1.0030313116811336
1.004641863646185
1.00697564963625
1.0101885709339373
1.0143580977415505
1.0194176526280072
1.0251095810874342
1.030984224166295
1.0364548959492712
1.0408948416129735
1.043749520438344
1.0446373353449896
1.0434180693920703
1.0402180208690317
1.035410366957798
1.029555239428989
1.0233073555151981
1.0173036056671436
1.0120526719812524
1.0078558554835841
1.004784405754131
1.0027215574571917
1.0014464574617818
1.0007186971532125
1.00033399930474
1.0001452119906171
1.0000590621845722
1.0000224693430053
1.0000079936526383
1.0000026588405388
1.0000008268061749
1.0000002404013213
1.0000000653825556
1.0000000166451346
1.000000003970843
1.0000000008889898
1.00000000018714
1.0000000000371292
1.000000000006962
1.0000000000012377
1.0000000000002087
1.0000000000000333
1.000000000000005
1.0000000000000007
1.0
1.0
1.0
1.0
1.0
1.0
1.0
1.0
1.0
1.0
1.0
1.0
1.0
1.0
1.0
1.0
1.0
1.0
1.0
1.0
1.0
1.0
1.0
1.0
1.0
1.0
1.0
1.0
1.0
1.0
1.0
1.0
1.0
1.0
1.0
1.0
1.0
1.0
1.0
1.0
1.0
1.0
1.0
1.0
1.0
1.0
1.0
1.0
1.0
1.0
1.0
1.0
1.0034131056659987
1.0038823388656388
1.0052429532379723
1.0076115046138114
1.0114227304086427
1.0172774814427608
1.0258317768569094
1.0376372023368923
1.05293634205047
1.0714836258642322
1.0924683374258657
1.1145734995175365
1.1361511702454528
1.1554583134606198
1.170882881278812
1.1811173202374459
1.1852741059861376
1.1829511059372892
1.174258168385737
1.1598135709887691
1.1407130348721406
1.1184626414416035
1.0948562700150442
1.071782997213702
1.0509718620610335
1.0337140770786915
1.0206399409317362
1.0116500101326946
1.0060608428451578
1.0029145894377849
1.001300623148984
1.000540314177138
1.0002093669917593
1.0000757427249662
1.0000255913565843
1.000008076323624
1.0000023809932579
1.0000006559329568
1.0000001689559757
1.0000000407298488
1.0000000092017598
1.0000000019518158
1.0000000003895926
1.0000000000733793
1.0000000000130824
1.0000000000022151
1.000000000000357
1.0000000000000548
1.000000000000008
1.0000000000000009
1.0
1.0
1.0
1.0
1.0
1.0
1.0
1.0
1.0
1.0
1.0
1.0
1.0
1.0
1.0
1.0
1.0
1.0
1.0
1.0
1.0
1.0
1.0
1.0
1.0
1.0
1.0
1.0
1.0
1.0
1.0
1.0
1.0
1.0
1.0
1.0
1.0
1.0
1.0
1.0
1.0
1.0
1.0
1.0
1.0
1.0
1.0
1.0
1.0
1.0
1.0
1.0195736564191982
1.022052587597301
1.0289883088949456
1.040402076542043
1.0575456904583382
1.0817260761784921
1.1137242806903644
1.1534254037532756
1.1996582882585418
1.2503031053407485
1.302606288249414
1.3535783549776674
1.4003560804382722
1.4404591630058183
1.4719117339781578
1.4932497491009955
1.50347776798924
1.5020271776237908
1.488744192816402
1.4639163710466097
1.4283374753088345
1.3834020419828839
1.3311948948301613
1.2745141565860147
1.2167603883588192
1.1616396906271373
1.1126733974871108
1.0725862589884931
1.0427316684426584
1.0227894405295364
1.010978525374012
1.004799744490183
1.0019229041151139
1.0007121408088377
1.00024510684326
1.000078601757303
1.000023511704098
1.0000065641002835
1.0000017114633089
1.0000004170929686
1.000000095128546
1.0000000203395154
1.0000000040857842
1.000000000773179
1.000000000138265
1.0000000000234466
1.000000000003784
1.0000000000005833
1.0000000000000857
1.000000000000012
1.0000000000000013
1.0
1.0
1.0
1.0
1.0
1.0
1.0
1.0
1.0
1.0
1.0
1.0
1.0
1.0
1.0
1.0
1.0
1.0
1.0
1.0
1.0
1.0
1.0
1.0
1.0
1.0
1.0
1.0
1.0
1.0
1.0
1.0
1.0
1.0
1.0
1.0
1.0
1.0
1.0
1.0
1.0
1.0
1.0
1.0
1.0
1.0
1.0
1.0
1.0
1.0
1.092441202412954
1.1015961638986378
1.125892414602208
1.1624529593403803
1.211906795467988
1.2741401338295701
1.3474358319344
1.4286518941866984
1.5137697998395552
1.5985835440310125
1.6792901021359983
1.752842624030206
1.8170379292182188
1.8704113404336613
1.9120399018287237
1.9413144027156948
1.9577437717706205
1.9608389919490687
1.9500826461074412
1.9249681778684895
1.8850947012479367
1.830334717015261
1.7610880625726488
1.6785908938054628
1.5852248562355662
1.484745728550865
1.3822999896113402
1.2840564636995515
1.1963409040935782
1.1243896533342284
1.0710778476274936
1.0361079965896114
1.0161889129208745
1.0064385244171261
1.0023087465788585
1.0007591239309617
1.0002311733846985
1.0000654947308492
1.000017297386642
1.000004263733032
1.0000009821511997
1.0000002117601883
1.0000000428249858
1.00000000814462
1.0000000014612147
1.0000000002481746
1.0000000000400557
1.0000000000061682
1.0000000000009095
1.0000000000001288
1.0000000000000173
1.000000000000002
1.0000000000000002
1.0
1.0
1.0
1.0
1.0
1.0
1.0
1.0
1.0
1.0
1.0
1.0
1.0
1.0
1.0
1.0
1.0
1.0
1.0
1.0
1.0
1.0
1.0
1.0
1.0
1.0
1.0
1.0
1.0
1.0
1.0
1.0
1.0
1.0
1.0
1.0
1.0
1.0
1.0
1.0
1.0
1.0
1.0
1.0
1.0
1.0
1.0
1.0
1.3086731625619246
1.328803729676726
1.3800491946813898
1.4513033885940296
1.5387490911248163
1.6379059146494654
1.7432120173162882
1.8489992196902107
1.9503826332185499
2.0437731204395657
2.126993660098729
2.1991005317471704
2.26002889550647
2.3101820324025897
2.350079753548319
2.38009613008497
2.40028078254052
2.410278594967794
2.4093339208537086
2.3963375838546304
2.3698737111213304
2.3283144509145575
2.270003292115832
2.19351791693096
2.0980442453668084
1.9838804856949293
1.853035355145198
1.7097995562143964
1.561062252988152
1.4160442032698164
1.285062459529012
1.1772451724538027
1.0979642413831978
1.047169037631778
1.0195517059018329
1.0070188429877285
1.0022362843281665
1.000649212082353
1.00017424204431
1.0000434947230672
1.0000101254162272
1.000002202509116
1.0000004485989606
1.0000000857711069
1.0000000154418662
1.0000000026270943
1.0000000004240053
1.0000000000651905
1.0000000000095879
1.0000000000013545
1.000000000000184
1.0000000000000238
1.0000000000000027
1.0000000000000002
1.0
1.0
1.0
1.0
1.0
1.0
1.0
1.0
1.0
1.0
1.0
1.0
1.0
1.0
1.0
1.0
1.0
1.0
1.0
1.0
1.0
1.0
1.0
1.0
1.0
1.0
1.0
1.0
1.0
1.0
1.0
1.0
1.0
1.0
1.0
1.0
1.0
1.0
1.0
1.0
1.0
1.0
1.0
1.0
1.0
1.0
1.0
1.7200962072646133
1.7461076243429794
1.8112280278402175
1.8975427063475796
1.9958567514044527
2.0982780963070504
2.198178340001494
2.290702740936873
2.3729974081651495
2.4440142639759204
2.50407762262811
2.554377980942119
2.5964997773271845
2.632028566033027
2.6622416548587076
2.687928385543395
2.709320387702727
2.726080458378232
2.737349569129554
2.741804408106551
2.737678670070954
2.722793778600262
2.694601670337545
2.650241883656882
2.5866830067286473
2.5009929200212397
2.3907983023405426
2.2549944908143202
2.094718356136353
1.9144473237732365
1.7228412577526702
1.5327087681609293
1.3594098231310998
1.2172151304074292
1.1146471170256769
1.051498916509067
1.0193906410247955
1.0061841773773643
1.0017325483527881
1.0004416316113764
1.0001041649148803
1.0000228809250982
1.0000046959917732
1.0000009029837105
1.0000001631816642
1.000000027813177
1.0000000044890465
1.00000000068904
1.0000000001010259
1.0000000000142102
1.0000000000019251
1.0000000000002518
1.0000000000000315
1.0000000000000036
1.0000000000000004
1.0
1.0
1.0
1.0
1.0
1.0
1.0
1.0
1.0
1.0
1.0
1.0
1.0
1.0
1.0
1.0
1.0
1.0
1.0
1.0
1.0
1.0
1.0
1.0
1.0
1.0
1.0
1.0
1.0
1.0
1.0
1.0
1.0
1.0
1.0
1.0
1.0
1.0
1.0
1.0
1.0
1.0
1.0
1.0
1.0
1.0
2.2561666340021875
2.2739477540053663
2.320514160213056
2.3833113918624886
2.4519053259404235
2.518653916435319
2.578839582881545
2.6300788985560297
2.6718970680641387
2.705186748122389
2.731658440024118
2.7533613930020993
2.7723406017427363
2.790412394407099
2.8089164652300447
2.828588078525322
2.8495835868242163
2.8715038916547795
2.8934497990862713
2.914082975386439
2.9316885231467924
2.944193933443472
2.949114571095641
2.9435019347569176
2.9239197895464253
2.8864540446113547
2.8268048305143143
2.74053783900545
2.623606748102615
2.4732767337363315
2.28954202032718
2.0769409836895463
1.8461974366875094
1.614560461101438
1.403562590157672
1.2333590851472598
1.1152123939591652
1.0470798418352119
1.0156835483405922
1.0043552757267988
1.001062778877511
1.0002370797282187
1.000049108771128
1.0000095028261589
1.0000017243502524
1.0000002945052295
1.0000000475371535
1.0000000072840263
1.0000000010644121
1.0000000001490186
1.0000000000200757
1.0000000000026128
1.0000000000003295
1.0000000000000404
1.0000000000000044
1.0000000000000004
1.0
1.0
1.0
1.0
1.0
1.0
1.0
1.0
1.0
1.0
1.0
1.0
1.0
1.0
1.0
1.0
1.0
1.0
1.0
1.0
1.0
1.0
1.0
1.0
1.0
1.0
1.0
1.0
1.0
1.0
1.0
1.0
1.0
1.0
1.0
1.0
1.0
1.0
1.0
1.0
1.0
1.0
1.0
1.0
1.0
2.777708116822734
2.7749121922823825
2.77580756127466
2.786135693801887
2.799089229224877
2.8098774270431734
2.8163789829438657
2.8180999433337144
2.8157278608794667
2.8107054275275143
2.8048417486014903
2.7999939869449157
2.7979049618690426
2.8001178486607254
2.8077284481839513
2.821267327314128
2.8407725667567263
2.8658037023107936
2.895464787537753
2.9284661699259975
2.9632573760007634
2.9980492390928895
3.030713558596796
3.058719349023857
3.0790682107829026
3.0882161976807048
3.0819964345944735
3.0555687550879735
3.003449237533196
2.9197247851283668
2.7986311287088927
2.63573352761725
2.429913456719035
2.1861252914697586
1.9180976630074111
1.6490143473804626
1.4079201892147917
1.2207087078482333
1.0990305841176968
1.0355817276597112
1.0101624094825654
1.0024159462325208
1.0005115104353828
1.0000999075542643
1.0000182186249047
1.0000031189310172
1.0000005035295918
1.0000000770170323
1.0000000112147422
1.000000001562218
1.000000000209159
1.0000000000270317
1.0000000000033848
1.0000000000004114
1.000000000000048
1.0000000000000049
1.0000000000000004
1.0
1.0
1.0
1.0
1.0
1.0
1.0
1.0
1.0
1.0
1.0
1.0
1.0
1.0
1.0
1.0
1.0
1.0
1.0
1.0
1.0
1.0
1.0
1.0
1.0
1.0
1.0
1.0
1.0
1.0
1.0
1.0
1.0
1.0
1.0
1.0
1.0
1.0
1.0
1.0
1.0
1.0
1.0
1.0
3.184594856488286
3.1564384712641225
3.1016997963433273
3.050380808429585
3.0016860863636188
2.9544599144851755
2.90869848044902
2.8647681194482844
2.823420120462381
2.7857141902953266
2.7528659233845856
2.7260862971264785
2.706550072741117
2.6953745652495344
2.693351591581523
2.7008295945044587
2.717791179496943
2.743831472107336
2.778126387617977
2.819480124004918
2.866505008845748
2.9176644826887332
2.9711686979814793
3.024921772980216
3.0764669645810225
3.1229091971397644
3.1608180900249407
3.186113490976676
3.1939390038415834
3.1785465224961653
3.133254345568627
3.050621700910949
2.9231121382304055
2.7446446742985953
2.5134002917672493
2.235870557288322
1.9308016650593385
1.6296900233981446
1.3702115126184515
1.18181253478954
1.071352567649057
1.0216283519198828
1.00514864289774
1.0010429739706113
1.0001922504970215
1.0000330306730345
1.0000053350109819
1.000000814533866
1.0000001181646812
1.0000000163723903
1.0000000021774837
1.0000000002792815
1.0000000000346894
1.0000000000041875
1.000000000000492
1.0000000000000562
1.0000000000000062
1.0000000000000007
1.0
1.0
1.0
1.0
1.0
1.0
1.0
1.0
1.0
1.0
1.0
1.0
1.0
1.0
1.0
1.0
1.0
1.0
1.0
1.0
1.0
1.0
1.0
1.0
1.0
1.0
1.0
1.0
1.0
1.0
1.0
1.0
1.0
1.0
1.0
1.0
1.0
1.0
1.0
1.0
1.0
1.0
1.0
3.4459463759730706
3.3932124085721562
3.285142176978646
3.1761524616703056
3.0715086328710326
2.973253561926387
2.882891423847452
2.8010340624853187
2.7279915156533336
2.6640892125117652
2.609741448533133
2.5654220324181107
2.5316959227217235
2.509219898322737
2.4985013762356125
2.4997756903052677
2.5130485545348895
2.5380369878440256
2.57408699139482
2.6201695389071444
2.6750481559525556
2.7373788716228447
2.8056415750988712
2.878085060070855
2.9526846405026728
3.027080740305995
3.0985028757349644
3.163679466675422
3.218724917537566
3.258992196264278
3.278887667193346
3.2716741554858904
3.229346737652148
3.1427839295087407
3.0025937581093065
2.801293511410858
2.537394840949576
2.221245774571869
1.8800857521198675
1.5567040311071003
1.2967290264987397
1.1269755969317372
1.0415209747782963
1.01018517461116
1.002002333445752
1.000349125819492
1.0000565260364014
1.0000086167126399
1.0000012451446427
1.0000001715362372
1.0000000226511356
1.0000000028814038
1.0000000003547038
1.0000000000424225
1.0000000000049458
1.0000000000005635
1.0000000000000628
1.0000000000000069
1.0000000000000007
1.0
1.0
1.0
1.0
1.0
1.0
1.0
1.0
1.0
1.0
1.0
1.0
1.0
1.0
1.0
1.0
1.0
1.0
1.0
1.0
1.0
1.0
1.0
1.0
1.0
1.0
1.0
1.0
1.0
1.0
1.0
1.0
1.0
1.0
1.0
1.0
1.0
1.0
1.0
1.0
1.0
1.0
3.5757477905119304
3.5010781630088417
3.345947300376566
3.1874092420593967
3.03601114871919
2.89594436565628
2.769626865394956
2.6576182495696483
2.5596484661591443
2.4752609008366173
2.404079599613894
2.3458889173764055
2.3006763825316696
2.268625709195434
2.2499683676859075
2.2448679232288296
2.2533926189461484
2.2754354908703087
2.3106001148389312
2.3581249780662707
2.4169575956905245
2.4859128363011953
2.563702393516201
2.6488746027040464
2.7397649436659814
2.8344353754495866
2.9306063840972283
3.025591779120494
3.116231616235129
3.1988047633649743
3.268897003990741
3.321205187420659
3.3492715198691636
3.3451813308479323
3.299349144346645
3.200708862771821
3.0379741798328554
2.8029588755572847
2.4967066010914847
2.1376203319795604
1.766401014410852
1.4390240796210607
1.2032843568286689
1.0718478624050507
1.0185344801960272
1.0036034668820282
1.0005969051127883
1.0000911377088197
1.0000131213059373
1.0000017966902992
1.0000002354290864
1.000000029683727
1.0000000036189183
1.0000000004284493
1.0000000000494382
1.0000000000055767
1.0000000000006164
1.0000000000000668
1.000000000000007
1.0000000000000007
1.0
1.0
1.0
1.0
1.0
1.0
1.0
1.0
1.0
1.0
1.0
1.0
1.0
1.0
1.0
1.0
1.0
1.0
1.0
1.0
1.0
1.0
1.0
1.0
1.0
1.0
1.0
1.0
1.0
1.0
1.0
1.0
1.0
1.0
1.0
1.0
1.0
1.0
1.0
1.0
1.0
3.6045361295466916
3.5102367136878505
3.3133582296061554
3.112297462066764
2.922466420342035
2.749002259284664
2.5945382531321504
2.459285580711204
2.342320540466611
2.2424343776676317
2.158529865594191
2.089770376047095
2.0356153946199522
1.9957897090888217
1.9702185114505553
1.9589584833331248
1.9621180559721934
1.9797566149601775
2.0117619614446243
2.057724216949337
2.1168783555908597
2.1882192977221093
2.2706647099986164
2.36306695176898
2.4641358654554075
2.5723532224757895
2.685883834770167
2.8025039063708674
2.919554204507355
3.03390437681084
3.1419024471846964
3.239281244163735
3.320990497552662
3.380925443056957
3.411543922363469
3.4034280748670116
3.3449984598972917
3.2229164826137646
3.0242637036089453
2.7419384013998314
2.383905781533538
1.983315012937659
1.5993485910165715
1.2974352310299835
1.1129643826416862
1.030900581510175
1.0060508595843418
1.0009584391456219
1.0001381858929985
1.000018811753828
1.0000024447566296
1.0000003052955737
1.000000036832833
1.0000000043131638
1.000000000492162
1.0000000000549025
1.0000000000060036
1.0000000000006446
1.000000000000068
1.000000000000007
1.0000000000000007
1.0
1.0
1.0
1.0
1.0
1.0
1.0
1.0
1.0
1.0
1.0
1.0
1.0
1.0
1.0
1.0
1.0
1.0
1.0
1.0
1.0
1.0
1.0
1.0
1.0
1.0
1.0
1.0
1.0
1.0
1.0
1.0
1.0
1.0
1.0
1.0
1.0
1.0
1.0
1.0
3.5625697823982128
3.4500067957344873
3.2144990020250157
2.9755254220305827
2.7535666640008216
2.553663683356976
2.377846952438243
2.225559904219162
2.0950705984184244
1.9844090806783423
1.891805456231028
1.8158517573766626
1.7555216743034658
1.7101261932748661
1.6792677268004643
1.6628004496013795
1.6607667221054991
1.6733075177572156
1.7005395431486972
1.74240825694364
1.7985511642214365
1.8682624053430064
1.9506572010356202
2.044866774109056
2.1500250224789816
2.265120606412537
2.3888507611500023
2.519505236524663
2.654899647092183
2.7923512069895184
2.928674092282395
3.060170084807032
3.1825859977487996
3.290998270324624
3.379577883386987
3.4411955079818806
3.4668675577039525
3.445158921004375
3.361928109996162
3.201385430759615
2.9502176567129625
2.6065642543900727
2.193226860823113
1.7664314518780764
1.403593265101261
1.163256345654946
1.0472775687821176
1.0094440667020272
1.001441725806451
1.000196680906166
1.00002535899959
1.0000031342209013
1.0000003738594532
1.0000000432627782
1.0000000048774424
1.0000000005375993
1.0000000000580973
1.0000000000061697
1.0000000000006448
1.0000000000000664
1.0000000000000067
1.0000000000000004
1.0
1.0
1.0
1.0
1.0
1.0
1.0
1.0
1.0
1.0
1.0
1.0
1.0
1.0
1.0
1.0
1.0
1.0
1.0
1.0
1.0
1.0
1.0
1.0
1.0
1.0
1.0
1.0
1.0
1.0
1.0
1.0
1.0
1.0
1.0
1.0
1.0
1.0
1.0
3.4734399387096513
3.343157952064159
3.0705103118285537
2.7965982561053946
2.547400653173456
2.327052043287323
2.1360923645224674
1.972690619093403
1.8340689191864057
1.7174293202930127
1.620343092614576
1.5408662531993484
1.477525453592388
1.4292599524676777
1.395361917703302
1.3754227193752397
1.3692901610230872
1.377021759521957
1.3988103191533832
1.4348638998719887
1.4852407501051141
1.5496973280113835
1.6276770227629445
1.7185308392653105
1.8217540541639594
1.9369109777546198
2.0633735954894994
2.2001164087472924
2.345585820433462
2.4976410634713733
2.653545046781577
2.8099853404311093
2.963106831278261
3.108527220111184
3.2412896007243654
3.3556905876375143
3.4449189007468273
3.500461925115262
3.5113206664663066
3.463291850749132
3.339100430161223
3.1211383821657237
2.7993811324945366
2.3858015320542045
1.9295985658467936
1.5143442940832514
1.2193821784605878
1.0667789122448839
1.0136751322270563
1.0020270754804268
1.0002623335050989
1.0000321054241081
1.000003783021738
1.0000004321587976
1.0000000480905826
1.0000000052325748
1.0000000005583645
1.0000000000585767
1.0000000000060534
1.000000000000617
1.000000000000062
1.0000000000000058
1.0000000000000004
1.0
1.0
1.0
1.0
1.0
1.0
1.0
1.0
1.0
1.0
1.0
1.0
1.0
1.0
1.0
1.0
1.0
1.0
1.0
1.0
1.0
1.0
1.0
1.0
1.0
1.0
1.0
1.0
1.0
1.0
1.0
1.0
1.0
1.0
1.0
1.0
1.0
1.0
3.353224876751644
3.205271566929904
2.8963237644255124
2.5901766279277982
2.3184176680738773
2.0834630201969215
1.8834849257881123
1.7148739339329193
1.573565115974116
1.4558584489800108
1.3586762342061856
1.2795793388069423
1.2166943448589986
1.1686227476100406
1.1343579089143796
1.1132171608256847
1.1047933365645444
1.1089259278133545
1.1256858619271202
1.155336213844668
1.1982239968379964
1.2545960562842438
1.3244217877898656
1.4074042539651686
1.503269162060657
1.6120272072362043
1.7337963789420523