# vtk DataFile Version 3.0 
shock_diffraction_time_series_50_.vtk
ASCII
DATASET UNSTRUCTURED_GRID
POINTS         10201 double
0.0 0.0 0.0
0.01 0.0 0.0
0.02 0.0 0.0
0.03 0.0 0.0
0.04 0.0 0.0
0.05 0.0 0.0
0.06 0.0 0.0
0.07 0.0 0.0
0.08 0.0 0.0
0.09 0.0 0.0
0.1 0.0 0.0
0.11 0.0 0.0
0.12 0.0 0.0
0.13 0.0 0.0
0.14 0.0 0.0
0.15 0.0 0.0
0.16 0.0 0.0
0.17 0.0 0.0
0.18 0.0 0.0
0.19 0.0 0.0
0.2 0.0 0.0
0.21 0.0 0.0
0.22 0.0 0.0
0.23 0.0 0.0
0.24 0.0 0.0
0.25 0.0 0.0
0.26 0.0 0.0
0.27 0.0 0.0
0.28 0.0 0.0
0.29 0.0 0.0
0.3 0.0 0.0
0.31 0.0 0.0
0.32 0.0 0.0
0.33 0.0 0.0
0.34 0.0 0.0
0.35000000000000003 0.0 0.0
0.36 0.0 0.0
0.37 0.0 0.0
0.38 0.0 0.0
0.39 0.0 0.0
0.4 0.0 0.0
0.41000000000000003 0.0 0.0
0.42 0.0 0.0
0.43 0.0 0.0
0.44 0.0 0.0
0.45 0.0 0.0
0.46 0.0 0.0
0.47000000000000003 0.0 0.0
0.48 0.0 0.0
0.49 0.0 0.0
0.5 0.0 0.0
0.51 0.0 0.0
0.52 0.0 0.0
0.53 0.0 0.0
0.54 0.0 0.0
0.55 0.0 0.0
0.56 0.0 0.0
0.5700000000000001 0.0 0.0
0.58 0.0 0.0
0.59 0.0 0.0
0.6 0.0 0.0
0.61 0.0 0.0
0.62 0.0 0.0
0.63 0.0 0.0
0.64 0.0 0.0
0.65 0.0 0.0
0.66 0.0 0.0
0.67 0.0 0.0
0.68 0.0 0.0
0.6900000000000001 0.0 0.0
0.7000000000000001 0.0 0.0
0.71 0.0 0.0
0.72 0.0 0.0
0.73 0.0 0.0
0.74 0.0 0.0
0.75 0.0 0.0
0.76 0.0 0.0
0.77 0.0 0.0
0.78 0.0 0.0
0.79 0.0 0.0
0.8 0.0 0.0
0.81 0.0 0.0
0.8200000000000001 0.0 0.0
0.8300000000000001 0.0 0.0
0.84 0.0 0.0
0.85 0.0 0.0
0.86 0.0 0.0
0.87 0.0 0.0
0.88 0.0 0.0
0.89 0.0 0.0
0.9 0.0 0.0
0.91 0.0 0.0
0.92 0.0 0.0
0.93 0.0 0.0
0.9400000000000001 0.0 0.0
0.9500000000000001 0.0 0.0
0.96 0.0 0.0
0.97 0.0 0.0
0.98 0.0 0.0
0.99 0.0 0.0
1.0 0.0 0.0
0.0 0.01 0.0
0.01 0.01 0.0
0.02 0.01 0.0
0.03 0.01 0.0
0.04 0.01 0.0
0.05 0.01 0.0
0.06 0.01 0.0
0.07 0.01 0.0
0.08 0.01 0.0
0.09 0.01 0.0
0.1 0.01 0.0
0.11 0.01 0.0
0.12 0.01 0.0
0.13 0.01 0.0
0.14 0.01 0.0
0.15 0.01 0.0
0.16 0.01 0.0
0.17 0.01 0.0
0.18 0.01 0.0
0.19 0.01 0.0
0.2 0.01 0.0
0.21 0.01 0.0
0.22 0.01 0.0
0.23 0.01 0.0
0.24 0.01 0.0
0.25 0.01 0.0
0.26 0.01 0.0
0.27 0.01 0.0
0.28 0.01 0.0
0.29 0.01 0.0
0.3 0.01 0.0
0.31 0.01 0.0
0.32 0.01 0.0
0.33 0.01 0.0
0.34 0.01 0.0
0.35000000000000003 0.01 0.0
0.36 0.01 0.0
0.37 0.01 0.0
0.38 0.01 0.0
0.39 0.01 0.0
0.4 0.01 0.0
0.41000000000000003 0.01 0.0
0.42 0.01 0.0
0.43 0.01 0.0
0.44 0.01 0.0
0.45 0.01 0.0
0.46 0.01 0.0
0.47000000000000003 0.01 0.0
0.48 0.01 0.0
0.49 0.01 0.0
0.5 0.01 0.0
0.51 0.01 0.0
0.52 0.01 0.0
0.53 0.01 0.0
0.54 0.01 0.0
0.55 0.01 0.0
0.56 0.01 0.0
0.5700000000000001 0.01 0.0
0.58 0.01 0.0
0.59 0.01 0.0
0.6 0.01 0.0
0.61 0.01 0.0
0.62 0.01 0.0
0.63 0.01 0.0
0.64 0.01 0.0
0.65 0.01 0.0
0.66 0.01 0.0
0.67 0.01 0.0
0.68 0.01 0.0
0.6900000000000001 0.01 0.0
0.7000000000000001 0.01 0.0
0.71 0.01 0.0
0.72 0.01 0.0
0.73 0.01 0.0
0.74 0.01 0.0
0.75 0.01 0.0
0.76 0.01 0.0
0.77 0.01 0.0
0.78 0.01 0.0
0.79 0.01 0.0
0.8 0.01 0.0
0.81 0.01 0.0
0.8200000000000001 0.01 0.0
0.8300000000000001 0.01 0.0
0.84 0.01 0.0
0.85 0.01 0.0
0.86 0.01 0.0
0.87 0.01 0.0
0.88 0.01 0.0
0.89 0.01 0.0
0.9 0.01 0.0
0.91 0.01 0.0
0.92 0.01 0.0
0.93 0.01 0.0
0.9400000000000001 0.01 0.0
0.9500000000000001 0.01 0.0
0.96 0.01 0.0
0.97 0.01 0.0
0.98 0.01 0.0
0.99 0.01 0.0
1.0 0.01 0.0
0.0 0.02 0.0
0.01 0.02 0.0
0.02 0.02 0.0
0.03 0.02 0.0
0.04 0.02 0.0
0.05 0.02 0.0
0.06 0.02 0.0
0.07 0.02 0.0
0.08 0.02 0.0
0.09 0.02 0.0
0.1 0.02 0.0
0.11 0.02 0.0
0.12 0.02 0.0
0.13 0.02 0.0
0.14 0.02 0.0
0.15 0.02 0.0
0.16 0.02 0.0
0.17 0.02 0.0
0.18 0.02 0.0
0.19 0.02 0.0
0.2 0.02 0.0
0.21 0.02 0.0
0.22 0.02 0.0
0.23 0.02 0.0
0.24 0.02 0.0
0.25 0.02 0.0
0.26 0.02 0.0
0.27 0.02 0.0
0.28 0.02 0.0
0.29 0.02 0.0
0.3 0.02 0.0
0.31 0.02 0.0
0.32 0.02 0.0
0.33 0.02 0.0
0.34 0.02 0.0
0.35000000000000003 0.02 0.0
0.36 0.02 0.0
0.37 0.02 0.0
0.38 0.02 0.0
0.39 0.02 0.0
0.4 0.02 0.0
0.41000000000000003 0.02 0.0
0.42 0.02 0.0
0.43 0.02 0.0
0.44 0.02 0.0
0.45 0.02 0.0
0.46 0.02 0.0
0.47000000000000003 0.02 0.0
0.48 0.02 0.0
0.49 0.02 0.0
0.5 0.02 0.0
0.51 0.02 0.0
0.52 0.02 0.0
0.53 0.02 0.0
0.54 0.02 0.0
0.55 0.02 0.0
0.56 0.02 0.0
0.5700000000000001 0.02 0.0
0.58 0.02 0.0
0.59 0.02 0.0
0.6 0.02 0.0
0.61 0.02 0.0
0.62 0.02 0.0
0.63 0.02 0.0
0.64 0.02 0.0
0.65 0.02 0.0
0.66 0.02 0.0
0.67 0.02 0.0
0.68 0.02 0.0
0.6900000000000001 0.02 0.0
0.7000000000000001 0.02 0.0
0.71 0.02 0.0
0.72 0.02 0.0
0.73 0.02 0.0
0.74 0.02 0.0
0.75 0.02 0.0
0.76 0.02 0.0
0.77 0.02 0.0
0.78 0.02 0.0
0.79 0.02 0.0
0.8 0.02 0.0
0.81 0.02 0.0
0.8200000000000001 0.02 0.0
0.8300000000000001 0.02 0.0
0.84 0.02 0.0
0.85 0.02 0.0
0.86 0.02 0.0
0.87 0.02 0.0
0.88 0.02 0.0
0.89 0.02 0.0
0.9 0.02 0.0
0.91 0.02 0.0
0.92 0.02 0.0
0.93 0.02 0.0
0.9400000000000001 0.02 0.0
0.9500000000000001 0.02 0.0
0.96 0.02 0.0
0.97 0.02 0.0
0.98 0.02 0.0
0.99 0.02 0.0
1.0 0.02 0.0
0.0 0.03 0.0
0.01 0.03 0.0
0.02 0.03 0.0
0.03 0.03 0.0
0.04 0.03 0.0
0.05 0.03 0.0
0.06 0.03 0.0
0.07 0.03 0.0
0.08 0.03 0.0
0.09 0.03 0.0
0.1 0.03 0.0
0.11 0.03 0.0
0.12 0.03 0.0
0.13 0.03 0.0
0.14 0.03 0.0
0.15 0.03 0.0
0.16 0.03 0.0
0.17 0.03 0.0
0.18 0.03 0.0
0.19 0.03 0.0
0.2 0.03 0.0
0.21 0.03 0.0
0.22 0.03 0.0
0.23 0.03 0.0
0.24 0.03 0.0
0.25 0.03 0.0
0.26 0.03 0.0
0.27 0.03 0.0
0.28 0.03 0.0
0.29 0.03 0.0
0.3 0.03 0.0
0.31 0.03 0.0
0.32 0.03 0.0
0.33 0.03 0.0
0.34 0.03 0.0
0.35000000000000003 0.03 0.0
0.36 0.03 0.0
0.37 0.03 0.0
0.38 0.03 0.0
0.39 0.03 0.0
0.4 0.03 0.0
0.41000000000000003 0.03 0.0
0.42 0.03 0.0
0.43 0.03 0.0
0.44 0.03 0.0
0.45 0.03 0.0
0.46 0.03 0.0
0.47000000000000003 0.03 0.0
0.48 0.03 0.0
0.49 0.03 0.0
0.5 0.03 0.0
0.51 0.03 0.0
0.52 0.03 0.0
0.53 0.03 0.0
0.54 0.03 0.0
0.55 0.03 0.0
0.56 0.03 0.0
0.5700000000000001 0.03 0.0
0.58 0.03 0.0
0.59 0.03 0.0
0.6 0.03 0.0
0.61 0.03 0.0
0.62 0.03 0.0
0.63 0.03 0.0
0.64 0.03 0.0
0.65 0.03 0.0
0.66 0.03 0.0
0.67 0.03 0.0
0.68 0.03 0.0
0.6900000000000001 0.03 0.0
0.7000000000000001 0.03 0.0
0.71 0.03 0.0
0.72 0.03 0.0
0.73 0.03 0.0
0.74 0.03 0.0
0.75 0.03 0.0
0.76 0.03 0.0
0.77 0.03 0.0
0.78 0.03 0.0
0.79 0.03 0.0
0.8 0.03 0.0
0.81 0.03 0.0
0.8200000000000001 0.03 0.0
0.8300000000000001 0.03 0.0
0.84 0.03 0.0
0.85 0.03 0.0
0.86 0.03 0.0
0.87 0.03 0.0
0.88 0.03 0.0
0.89 0.03 0.0
0.9 0.03 0.0
0.91 0.03 0.0
0.92 0.03 0.0
0.93 0.03 0.0
0.9400000000000001 0.03 0.0
0.9500000000000001 0.03 0.0
0.96 0.03 0.0
0.97 0.03 0.0
0.98 0.03 0.0
0.99 0.03 0.0
1.0 0.03 0.0
0.0 0.04 0.0
0.01 0.04 0.0
0.02 0.04 0.0
0.03 0.04 0.0
0.04 0.04 0.0
0.05 0.04 0.0
0.06 0.04 0.0
0.07 0.04 0.0
0.08 0.04 0.0
0.09 0.04 0.0
0.1 0.04 0.0
0.11 0.04 0.0
0.12 0.04 0.0
0.13 0.04 0.0
0.14 0.04 0.0
0.15 0.04 0.0
0.16 0.04 0.0
0.17 0.04 0.0
0.18 0.04 0.0
0.19 0.04 0.0
0.2 0.04 0.0
0.21 0.04 0.0
0.22 0.04 0.0
0.23 0.04 0.0
0.24 0.04 0.0
0.25 0.04 0.0
0.26 0.04 0.0
0.27 0.04 0.0
0.28 0.04 0.0
0.29 0.04 0.0
0.3 0.04 0.0
0.31 0.04 0.0
0.32 0.04 0.0
0.33 0.04 0.0
0.34 0.04 0.0
0.35000000000000003 0.04 0.0
0.36 0.04 0.0
0.37 0.04 0.0
0.38 0.04 0.0
0.39 0.04 0.0
0.4 0.04 0.0
0.41000000000000003 0.04 0.0
0.42 0.04 0.0
0.43 0.04 0.0
0.44 0.04 0.0
0.45 0.04 0.0
0.46 0.04 0.0
0.47000000000000003 0.04 0.0
0.48 0.04 0.0
0.49 0.04 0.0
0.5 0.04 0.0
0.51 0.04 0.0
0.52 0.04 0.0
0.53 0.04 0.0
0.54 0.04 0.0
0.55 0.04 0.0
0.56 0.04 0.0
0.5700000000000001 0.04 0.0
0.58 0.04 0.0
0.59 0.04 0.0
0.6 0.04 0.0
0.61 0.04 0.0
0.62 0.04 0.0
0.63 0.04 0.0
0.64 0.04 0.0
0.65 0.04 0.0
0.66 0.04 0.0
0.67 0.04 0.0
0.68 0.04 0.0
0.6900000000000001 0.04 0.0
0.7000000000000001 0.04 0.0
0.71 0.04 0.0
0.72 0.04 0.0
0.73 0.04 0.0
0.74 0.04 0.0
0.75 0.04 0.0
0.76 0.04 0.0
0.77 0.04 0.0
0.78 0.04 0.0
0.79 0.04 0.0
0.8 0.04 0.0
0.81 0.04 0.0
0.8200000000000001 0.04 0.0
0.8300000000000001 0.04 0.0
0.84 0.04 0.0
0.85 0.04 0.0
0.86 0.04 0.0
0.87 0.04 0.0
0.88 0.04 0.0
0.89 0.04 0.0
0.9 0.04 0.0
0.91 0.04 0.0
0.92 0.04 0.0
0.93 0.04 0.0
0.9400000000000001 0.04 0.0
0.9500000000000001 0.04 0.0
0.96 0.04 0.0
0.97 0.04 0.0
0.98 0.04 0.0
0.99 0.04 0.0
1.0 0.04 0.0
0.0 0.05 0.0
0.01 0.05 0.0
0.02 0.05 0.0
0.03 0.05 0.0
0.04 0.05 0.0
0.05 0.05 0.0
0.06 0.05 0.0
0.07 0.05 0.0
0.08 0.05 0.0
0.09 0.05 0.0
0.1 0.05 0.0
0.11 0.05 0.0
0.12 0.05 0.0
0.13 0.05 0.0
0.14 0.05 0.0
0.15 0.05 0.0
0.16 0.05 0.0
0.17 0.05 0.0
0.18 0.05 0.0
0.19 0.05 0.0
0.2 0.05 0.0
0.21 0.05 0.0
0.22 0.05 0.0
0.23 0.05 0.0
0.24 0.05 0.0
0.25 0.05 0.0
0.26 0.05 0.0
0.27 0.05 0.0
0.28 0.05 0.0
0.29 0.05 0.0
0.3 0.05 0.0
0.31 0.05 0.0
0.32 0.05 0.0
0.33 0.05 0.0
0.34 0.05 0.0
0.35000000000000003 0.05 0.0
0.36 0.05 0.0
0.37 0.05 0.0
0.38 0.05 0.0
0.39 0.05 0.0
0.4 0.05 0.0
0.41000000000000003 0.05 0.0
0.42 0.05 0.0
0.43 0.05 0.0
0.44 0.05 0.0
0.45 0.05 0.0
0.46 0.05 0.0
0.47000000000000003 0.05 0.0
0.48 0.05 0.0
0.49 0.05 0.0
0.5 0.05 0.0
0.51 0.05 0.0
0.52 0.05 0.0
0.53 0.05 0.0
0.54 0.05 0.0
0.55 0.05 0.0
0.56 0.05 0.0
0.5700000000000001 0.05 0.0
0.58 0.05 0.0
0.59 0.05 0.0
0.6 0.05 0.0
0.61 0.05 0.0
0.62 0.05 0.0
0.63 0.05 0.0
0.64 0.05 0.0
0.65 0.05 0.0
0.66 0.05 0.0
0.67 0.05 0.0
0.68 0.05 0.0
0.6900000000000001 0.05 0.0
0.7000000000000001 0.05 0.0
0.71 0.05 0.0
0.72 0.05 0.0
0.73 0.05 0.0
0.74 0.05 0.0
0.75 0.05 0.0
0.76 0.05 0.0
0.77 0.05 0.0
0.78 0.05 0.0
0.79 0.05 0.0
0.8 0.05 0.0
0.81 0.05 0.0
0.8200000000000001 0.05 0.0
0.8300000000000001 0.05 0.0
0.84 0.05 0.0
0.85 0.05 0.0
0.86 0.05 0.0
0.87 0.05 0.0
0.88 0.05 0.0
0.89 0.05 0.0
0.9 0.05 0.0
0.91 0.05 0.0
0.92 0.05 0.0
0.93 0.05 0.0
0.9400000000000001 0.05 0.0
0.9500000000000001 0.05 0.0
0.96 0.05 0.0
0.97 0.05 0.0
0.98 0.05 0.0
0.99 0.05 0.0
1.0 0.05 0.0
0.0 0.06 0.0
0.01 0.06 0.0
0.02 0.06 0.0
0.03 0.06 0.0
0.04 0.06 0.0
0.05 0.06 0.0
0.06 0.06 0.0
0.07 0.06 0.0
0.08 0.06 0.0
0.09 0.06 0.0
0.1 0.06 0.0
0.11 0.06 0.0
0.12 0.06 0.0
0.13 0.06 0.0
0.14 0.06 0.0
0.15 0.06 0.0
0.16 0.06 0.0
0.17 0.06 0.0
0.18 0.06 0.0
0.19 0.06 0.0
0.2 0.06 0.0
0.21 0.06 0.0
0.22 0.06 0.0
0.23 0.06 0.0
0.24 0.06 0.0
0.25 0.06 0.0
0.26 0.06 0.0
0.27 0.06 0.0
0.28 0.06 0.0
0.29 0.06 0.0
0.3 0.06 0.0
0.31 0.06 0.0
0.32 0.06 0.0
0.33 0.06 0.0
0.34 0.06 0.0
0.35000000000000003 0.06 0.0
0.36 0.06 0.0
0.37 0.06 0.0
0.38 0.06 0.0
0.39 0.06 0.0
0.4 0.06 0.0
0.41000000000000003 0.06 0.0
0.42 0.06 0.0
0.43 0.06 0.0
0.44 0.06 0.0
0.45 0.06 0.0
0.46 0.06 0.0
[...]
POINT_DATA  10201
FIELD  FlowField  5
Density    1 10201  double
1.0000000000000007
1.0000000000000007
1.0000000000000009
1.0000000000000013
1.0000000000000018
1.0000000000000022
1.0000000000000024
1.0000000000000024
1.0000000000000022
1.0000000000000018
1.0000000000000016
1.000000000000001
1.0000000000000004
1.0
1.0
1.0
1.0
1.0
1.0
1.0
1.0
1.0
1.0
1.0
1.0
1.0
1.0
1.0
1.0
1.0
1.0
1.0
1.0
1.0
1.0
1.0
1.0
1.0
1.0
1.0
1.0
1.0
1.0
1.0
1.0
1.0
1.0
1.0
1.0
1.0
1.0
1.0
1.0
1.0
1.0
1.0
1.0
1.0
1.0
1.0
1.0
1.0
1.0
1.0
1.0
1.0
1.0
1.0
1.0
1.0
1.0
1.0
1.0
1.0
1.0
1.0
1.0
1.0
1.0
1.0
1.0
1.0
1.0
1.0
1.0
1.0
1.0
1.0
1.0
1.0
1.0
1.0
1.0
1.0
1.0
1.0
1.0
1.0
1.0
1.0
1.0
1.0000000000000036
1.0000000000000038
1.0000000000000044
1.0000000000000056
1.0000000000000069
1.000000000000008
1.0000000000000089
1.0000000000000089
1.0000000000000084
1.0000000000000075
1.0000000000000064
1.0000000000000049
1.0000000000000036
1.0000000000000027
1.0000000000000018
1.000000000000001
1.0000000000000007
1.0000000000000002
1.0
1.0
1.0
1.0
1.0
1.0
1.0
1.0
1.0
1.0
1.0
1.0
1.0
1.0
1.0
1.0
1.0
1.0
1.0
1.0
1.0
1.0
1.0
1.0
1.0
1.0
1.0
1.0
1.0
1.0
1.0
1.0
1.0
1.0
1.0
1.0
1.0
1.0
1.0
1.0
1.0
1.0
1.0
1.0
1.0
1.0
1.0
1.0
1.0
1.0
1.0
1.0
1.0
1.0
1.0
1.0
1.0
1.0
1.0
1.0
1.0
1.0
1.0
1.0
1.0
1.0
1.0
1.0
1.0
1.0
1.0
1.0
1.0
1.0
1.0
1.0
1.0
1.0
1.0
1.0
1.0
1.0
1.0
1.0000000000000209
1.0000000000000226
1.0000000000000269
1.0000000000000329
1.0000000000000395
1.000000000000046
1.00000000000005
1.0000000000000515
1.0000000000000502
1.0000000000000466
1.0000000000000409
1.0000000000000342
1.0000000000000266
1.0000000000000198
1.0000000000000142
1.0000000000000095
1.000000000000006
1.0000000000000033
1.0000000000000018
1.0000000000000007
1.0000000000000002
1.0
1.0
1.0
1.0
1.0
1.0
1.0
1.0
1.0
1.0
1.0
1.0
1.0
1.0
1.0
1.0
1.0
1.0
1.0
1.0
1.0
1.0
1.0
1.0
1.0
1.0
1.0
1.0
1.0
1.0
1.0
1.0
1.0
1.0
1.0
1.0
1.0
1.0
1.0
1.0
1.0
1.0
1.0
1.0
1.0
1.0
1.0
1.0
1.0
1.0
1.0
1.0
1.0
1.0
1.0
1.0
1.0
1.0
1.0
1.0
1.0
1.0
1.0
1.0
1.0
1.0
1.0
1.0
1.0
1.0
1.0
1.0
1.0
1.0
1.0
1.0
1.0
1.0
1.0
1.0
1.0000000000001057
1.0000000000001148
1.0000000000001386
1.0000000000001719
1.0000000000002094
1.0000000000002442
1.000000000000271
1.0000000000002853
1.000000000000285
1.0000000000002698
1.0000000000002425
1.0000000000002072
1.0000000000001679
1.0000000000001288
1.0000000000000937
1.0000000000000644
1.0000000000000417
1.0000000000000253
1.0000000000000147
1.000000000000008
1.0000000000000038
1.0000000000000016
1.0000000000000004
1.0
1.0
1.0
1.0
1.0
1.0
1.0
1.0
1.0
1.0
1.0
1.0
1.0
1.0
1.0
1.0
1.0
1.0
1.0
1.0
1.0
1.0
1.0
1.0
1.0
1.0
1.0
1.0
1.0
1.0
1.0
1.0
1.0
1.0
1.0
1.0
1.0
1.0
1.0
1.0
1.0
1.0
1.0
1.0
1.0
1.0
1.0
1.0
1.0
1.0
1.0
1.0
1.0
1.0
1.0
1.0
1.0
1.0
1.0
1.0
1.0
1.0
1.0
1.0
1.0
1.0
1.0
1.0
1.0
1.0
1.0
1.0
1.0
1.0
1.0
1.0
1.0
1.0
1.0000000000005138
1.000000000000559
1.000000000000683
1.000000000000862
1.0000000000010671
1.0000000000012668
1.0000000000014317
1.000000000001538
1.0000000000015687
1.00000000000152
1.000000000001399
1.000000000001224
1.0000000000010165
1.0000000000008007
1.0000000000005977
1.0000000000004228
1.0000000000002824
1.0000000000001776
1.0000000000001057
1.0000000000000593
1.0000000000000306
1.0000000000000147
1.0000000000000064
1.0000000000000024
1.0000000000000009
1.0000000000000002
1.0
1.0
1.0
1.0
1.0
1.0
1.0
1.0
1.0
1.0
1.0
1.0
1.0
1.0
1.0
1.0
1.0
1.0
1.0
1.0
1.0
1.0
1.0
1.0
1.0
1.0
1.0
1.0
1.0
1.0
1.0
1.0
1.0
1.0
1.0
1.0
1.0
1.0
1.0
1.0
1.0
1.0
1.0
1.0
1.0
1.0
1.0
1.0
1.0
1.0
1.0
1.0
1.0
1.0
1.0
1.0
1.0
1.0
1.0
1.0
1.0
1.0
1.0
1.0
1.0
1.0
1.0
1.0
1.0
1.0
1.0
1.0
1.0
1.0
1.0
1.0000000000024354
1.0000000000026645
1.0000000000032985
1.0000000000042266
1.0000000000053224
1.0000000000064382
1.0000000000074223
1.0000000000081384
1.0000000000084839
1.0000000000084086
1.0000000000079257
1.0000000000071
1.0000000000060414
1.0000000000048797
1.000000000003737
1.0000000000027103
1.0000000000018587
1.0000000000012035
1.000000000000735
1.0000000000004226
1.0000000000002278
1.0000000000001152
1.0000000000000546
1.000000000000024
1.0000000000000098
1.0000000000000036
1.000000000000001
1.0000000000000002
1.0
1.0
1.0
1.0
1.0
1.0
1.0
1.0
1.0
1.0
1.0
1.0
1.0
1.0
1.0
1.0
1.0
1.0
1.0
1.0
1.0
1.0
1.0
1.0
1.0
1.0
1.0
1.0
1.0
1.0
1.0
1.0
1.0
1.0
1.0
1.0
1.0
1.0
1.0
1.0
1.0
1.0
1.0
1.0
1.0
1.0
1.0
1.0
1.0
1.0
1.0
1.0
1.0
1.0
1.0
1.0
1.0
1.0
1.0
1.0
1.0
1.0
1.0
1.0
1.0
1.0
1.0
1.0
1.0
1.0
1.0
1.0
1.0
1.0000000000113265
1.0000000000124643
1.0000000000156324
1.0000000000203513
1.0000000000260798
1.0000000000321507
1.0000000000378215
1.0000000000423608
1.00000000004515
1.0000000000457927
1.000000000044189
1.0000000000405527
1.0000000000353682
1.000000000029289
1.000000000023005
1.0000000000171156
1.0000000000120453
1.000000000008007
1.000000000005019
1.0000000000029614
1.000000000001643
1.0000000000008555
1.0000000000004172
1.00000000000019
1.0000000000000808
1.000000000000032
1.0000000000000115
1.0000000000000038
1.000000000000001
1.0000000000000002
1.0
1.0
1.0
1.0
1.0
1.0
1.0
1.0
1.0
1.0
1.0
1.0
1.0
1.0
1.0
1.0
1.0
1.0
1.0
1.0
1.0
1.0
1.0
1.0
1.0
1.0
1.0
1.0
1.0
1.0
1.0
1.0
1.0
1.0
1.0
1.0
1.0
1.0
1.0
1.0
1.0
1.0
1.0
1.0
1.0
1.0
1.0
1.0
1.0
1.0
1.0
1.0
1.0
1.0
1.0
1.0
1.0
1.0
1.0
1.0
1.0
1.0
1.0
1.0
1.0
1.0
1.0
1.0
1.0
1.0
1.0
1.0000000000517426
1.0000000000572653
1.000000000072776
1.000000000096297
1.000000000125629
1.000000000157875
1.0000000001895566
1.0000000002169251
1.0000000002364622
1.0000000002454688
1.0000000002425957
1.000000000228138
1.000000000203989
1.000000000173254
1.0000000001396114
1.0000000001065947
1.0000000000770002
1.0000000000525429
1.000000000033813
1.0000000000204865
1.0000000000116671
1.000000000006235
1.0000000000031213
1.000000000001462
1.0000000000006397
1.000000000000261
1.0000000000000993
1.0000000000000349
1.000000000000011
1.000000000000003
1.0000000000000007
1.0
1.0
1.0
1.0
1.0
1.0
1.0
1.0
1.0
1.0
1.0
1.0
1.0
1.0
1.0
1.0
1.0
1.0
1.0
1.0
1.0
1.0
1.0
1.0
1.0
1.0
1.0
1.0
1.0
1.0
1.0
1.0
1.0
1.0
1.0
1.0
1.0
1.0
1.0
1.0
1.0
1.0
1.0
1.0
1.0
1.0
1.0
1.0
1.0
1.0
1.0
1.0
1.0
1.0
1.0
1.0
1.0
1.0
1.0
1.0
1.0
1.0
1.0
1.0
1.0
1.0
1.0
1.0
1.0
1.0
1.0000000002321308
1.000000000258416
1.0000000003328666
1.0000000004477538
1.0000000005947913
1.0000000007621261
1.0000000009341896
1.0000000010926204
1.0000000012184058
1.0000000012949162
1.0000000013110855
1.000000001263829
1.0000000011588996
1.0000000010098251
1.000000000835129
1.000000000654579
1.000000000485523
1.000000000340243
1.0000000002248854
1.000000000139948
1.0000000000818545
1.000000000044919
1.0000000000230884
1.0000000000110987
1.0000000000049818
1.0000000000020857
1.0000000000008136
1.000000000000295
1.0000000000000993
1.0000000000000309
1.0000000000000087
1.000000000000002
1.0000000000000002
1.0
1.0
1.0
1.0
1.0
1.0
1.0
1.0
1.0
1.0
1.0
1.0
1.0
1.0
1.0
1.0
1.0
1.0
1.0
1.0
1.0
1.0
1.0
1.0
1.0
1.0
1.0
1.0
1.0
1.0
1.0
1.0
1.0
1.0
1.0
1.0
1.0
1.0
1.0
1.0
1.0
1.0
1.0
1.0
1.0
1.0
1.0
1.0
1.0
1.0
1.0
1.0
1.0
1.0
1.0
1.0
1.0
1.0
1.0
1.0
1.0
1.0
1.0
1.0
1.0
1.0
1.0
1.0
1.0000000010225838
1.000000001145226
1.0000000014954888
1.0000000020453308
1.0000000027669955
1.0000000036157315
1.000000004525713
1.0000000054111988
1.000000006174539
1.0000000067203412
1.0000000069728463
1.0000000068919634
1.0000000064831496
1.0000000057976557
1.0000000049224291
1.000000003962214
1.0000000030188503
1.0000000021734887
1.0000000014761061
1.0000000009439116
1.0000000005672822
1.0000000003198353
1.0000000001688647
1.0000000000833489
1.0000000000383993
1.0000000000164901
1.000000000006593
1.0000000000024518
1.0000000000008473
1.000000000000272
1.000000000000081
1.000000000000022
1.000000000000005
1.000000000000001
1.0000000000000002
1.0
1.0
1.0
1.0
1.0
1.0
1.0
1.0
1.0
1.0
1.0
1.0
1.0
1.0
1.0
1.0
1.0
1.0
1.0
1.0
1.0
1.0
1.0
1.0
1.0
1.0
1.0
1.0
1.0
1.0
1.0
1.0
1.0
1.0
1.0
1.0
1.0
1.0
1.0
1.0
1.0
1.0
1.0
1.0
1.0
1.0
1.0
1.0
1.0
1.0
1.0
1.0
1.0
1.0
1.0
1.0
1.0
1.0
1.0
1.0
1.0
1.0
1.0
1.0
1.0
1.0
1.0000000044226964
1.0000000049835034
1.0000000065983177
1.0000000091763943
1.0000000126442548
1.0000000168531806
1.0000000215450227
1.0000000263408553
1.0000000307639967
1.0000000342994513
1.000000036480558
1.0000000369829638
1.0000000356999499
1.0000000327750018
1.0000000285784933
1.0000000236322508
1.000000018502515
1.000000013691751
1.0000000095586088
1.000000006283718
1.0000000038823127
1.0000000022499984
1.0000000012208812
1.000000000619124
1.000000000292926
1.0000000001291067
1.0000000000529399
1.0000000000201745
1.0000000000071398
1.0000000000023461
1.0000000000007156
1.0000000000002023
1.0000000000000528
1.0000000000000124
1.0000000000000027
1.0000000000000004
1.0
1.0
1.0
1.0
1.0
1.0
1.0
1.0
1.0
1.0
1.0
1.0
1.0
1.0
1.0
1.0
1.0
1.0
1.0
1.0
1.0
1.0
1.0
1.0
1.0
1.0
1.0
1.0
1.0
1.0
1.0
1.0
1.0
1.0
1.0
1.0
1.0
1.0
1.0
1.0
1.0
1.0
1.0
1.0
1.0
1.0
1.0
1.0
1.0
1.0
1.0
1.0
1.0
1.0
1.0
1.0
1.0
1.0
1.0
1.0
1.0
1.0
1.0
1.0
1.0
1.0000000187775417
1.0000000212902411
1.000000028584208
1.0000000404247527
1.0000000567393026
1.0000000771501816
1.0000001007534471
1.000000125984716
1.0000001506406628
1.000000172092685
1.000000187679749
1.0000001952074289
1.0000001934292702
1.0000001823682474
1.0000001633673032
1.0000001388338886
1.0000001117401514
1.000000085020962
1.00000006104146
1.0000000412719903
1.0000000262270499
1.0000000156327267
1.000000008722668
1.0000000045473407
1.000000002210891
1.0000000010008097
1.0000000004211826
1.0000000001645881
1.0000000000596692
1.0000000000200595
1.000000000006253
1.000000000001808
1.0000000000004852
1.0000000000001208
1.0000000000000275
1.0000000000000056
1.0000000000000007
1.0
1.0
1.0
1.0
1.0
1.0
1.0
1.0
1.0
1.0
1.0
1.0
1.0
1.0
1.0
1.0
1.0
1.0
1.0
1.0
1.0
1.0
1.0
1.0
1.0
1.0
1.0
1.0
1.0
1.0
1.0
1.0
1.0
1.0
1.0
1.0
1.0
1.0
1.0
1.0
1.0
1.0
1.0
1.0
1.0
1.0
1.0
1.0
1.0
1.0
1.0
1.0
1.0
1.0
1.0
1.0
1.0
1.0
1.0
1.0
1.0
1.0
1.0
1.0
1.0000000782543985
1.0000000892830707
1.000000121554538
1.000000174811499
1.0000002499430716
1.0000003467433431
1.0000004626613634
1.000000591818133
1.000000724651869
1.0000008484789054
1.0000009490755035
1.0000010130932007
1.000001030795659
1.0000009983783382
1.0000009191377683
1.0000008030326302
1.0000006646626611
1.0000005202148259
1.0000003842663197
1.0000002673446653
1.0000001748235616
1.0000001072280216
1.0000000615590876
1.0000000330116794
1.0000000165039638
1.0000000076783013
1.0000000033188645
1.0000000013309407
1.000000000494659
1.000000000170268
1.0000000000542681
1.0000000000160205
1.0000000000043847
1.0000000000011142
1.000000000000263
1.0000000000000575
1.0000000000000115
1.000000000000002
1.0000000000000002
1.0
1.0
1.0
1.0
1.0
1.0
1.0
1.0
1.0
1.0
1.0
1.0
1.0
1.0
1.0
1.0
1.0
1.0
1.0
1.0
1.0
1.0
1.0
1.0
1.0
1.0
1.0
1.0
1.0
1.0
1.0
1.0
1.0
1.0
1.0
1.0
1.0
1.0
1.0
1.0
1.0
1.0
1.0
1.0
1.0
1.0
1.0
1.0
1.0
1.0
1.0
1.0
1.0
1.0
1.0
1.0
1.0
1.0
1.0
1.0
1.0
1.0
1.0000003200896677
1.0000003674987603
1.0000005073224942
1.0000007418574317
1.0000010804897272
1.0000015294494984
1.00000208538094
1.000002729365777
1.0000034231009611
1.0000041089910165
1.0000047154372502
1.0000051673853265
1.0000054004383647
1.0000053751611233
1.0000050874212525
1.000004571209943
1.0000038924291468
1.0000031350448944
1.0000023835934433
1.0000017071859082
1.0000011493659402
1.0000007258042727
1.0000004289621078
1.0000002367693999
1.0000001217978416
1.0000000582788986
1.0000000258918733
1.0000000106639169
1.0000000040664891
1.0000000014344375
1.000000000467854
1.000000000141107
1.000000000039383
1.0000000000101856
1.000000000002446
1.0000000000005467
1.0000000000001135
1.0000000000000218
1.0000000000000036
1.0000000000000004
1.0
1.0
1.0
1.0
1.0
1.0
1.0
1.0
1.0
1.0
1.0
1.0
1.0
1.0
1.0
1.0
1.0
1.0
1.0
1.0
1.0
1.0
1.0
1.0
1.0
1.0
1.0
1.0
1.0
1.0
1.0
1.0
1.0
1.0
1.0
1.0
1.0
1.0
1.0
1.0
1.0
1.0
1.0
1.0
1.0
1.0
1.0
1.0
1.0
1.0
1.0
1.0
1.0
1.0
1.0
1.0
1.0
1.0
1.0
1.0
1.0
1.0000012850729538
1.0000014846243837
1.0000020777369425
1.0000030887323423
1.0000045821971888
1.0000066183326866
1.000009222366889
1.0000123521721394
1.0000158712036147
1.0000195359930788
1.0000230073938865
1.0000258907356616
1.0000278018625182
1.0000284459604725
1.0000276885299813
1.000025596173298
1.0000224313851285
1.000018599491745
1.0000145619676004
1.0000107419316708
1.0000074494942237
1.0000048458878483
1.0000029500996552
1.000001677027163
1.0000008882425488
1.0000004374234186
1.0000001998971635
1.0000000846232915
1.0000000331371501
1.000000011989419
1.000000004005393
1.0000000012353594
1.0000000003519254
1.0000000000927105
1.000000000022629
1.000000000005131
1.000000000001084
1.000000000000214
1.0000000000000393
1.0000000000000064
1.0000000000000007
1.0
1.0
1.0
1.0
1.0
1.0
1.0
1.0
1.0
1.0
1.0
1.0
1.0
1.0
1.0
1.0
1.0
1.0
1.0
1.0
1.0
1.0
1.0
1.0
1.0
1.0
1.0
1.0
1.0
1.0
1.0
1.0
1.0
1.0
1.0
1.0
1.0
1.0
1.0
1.0
1.0
1.0
1.0
1.0
1.0
1.0
1.0
1.0
1.0
1.0
1.0
1.0
1.0
1.0
1.0
1.0
1.0
1.0
1.0
1.0
1.000005064204772
1.0000058864493273
1.0000083488835165
1.0000126133596599
1.0000190564339189
1.0000280840974534
1.0000399965678104
1.0000548277791281
1.0000721851342185
1.000091132016436
1.0001101662300467
1.00012734022277
1.000140536781289
1.0001478620737343
1.000148067061707
1.0001408766677442
1.0001271131767475
1.0001085554602718
1.0000875608851207
1.0000665593308606
1.0000475725057174
1.0000318960065233
1.0000200135796509
1.0000117246575924
1.000006398233049
1.0000032451736467
1.0000015265935471
1.00000066479276
1.0000002675501454
1.0000000993805584
1.0000000340390693
1.000000010746346
1.0000000031278522
1.0000000008401153
1.0000000002085865
1.000000000047994
1.000000000010268
1.0000000000020506
1.0000000000003837
1.000000000000067
1.0000000000000107
1.0000000000000013
1.0000000000000002
1.0
1.0
1.0
1.0
1.0
1.0
1.0
1.0
1.0
1.0
1.0
1.0
1.0
1.0
1.0
1.0
1.0
1.0
1.0
1.0
1.0
1.0
1.0
1.0
1.0
1.0
1.0
1.0
1.0
1.0
1.0
1.0
1.0
1.0
1.0
1.0
1.0
1.0
1.0
1.0
1.0
1.0
1.0
1.0
1.0
1.0
1.0
1.0
1.0
1.0
1.0
1.0
1.0
1.0
1.0
1.0
1.0
1.0
1.000019592812858
1.0000229086252475
1.0000329113129802
1.000050505805609
1.0000776840737096
1.0001167952307313
1.0001699913486002
1.0002384921895762
1.0003217400124367
1.0004166156050815
1.0005169812768597
1.0006138447196866
1.0006963405571567
1.000753493590574
1.0007764468075986
1.0007605903141328
1.000706926279289
1.00062215586008
1.0005173498625335
1.0004055414610493
1.0002989627116148
1.0002067611290126
1.0001338195248008
1.0000808538739747
1.0000454948298068
1.0000237839445845
1.0000115264642089
1.0000051677210293
1.0000021393937815
1.0000008165820122
1.00000028702846
1.0000000928494985
1.0000000276401053
1.0000000075769035
1.0000000019154642
1.0000000004476133
1.0000000000970006
1.000000000019572
1.0000000000036937
1.000000000000655
1.0000000000001092
1.0000000000000169
1.0000000000000022
1.0000000000000002
1.0
1.0
1.0
1.0
1.0
1.0
1.0
1.0
1.0
1.0
1.0
1.0
1.0
1.0
1.0
1.0
1.0
1.0
1.0
1.0
1.0
1.0
1.0
1.0
1.0
1.0
1.0
1.0
1.0
1.0
1.0
1.0
1.0
1.0
1.0
1.0
1.0
1.0
1.0
1.0
1.0
1.0
1.0
1.0
1.0
1.0
1.0
1.0
1.0
1.0
1.0
1.0
1.0
1.0
1.0
1.0
1.0
1.0000744383217115
1.0000875200224433
1.0001272541730455
1.0001982056223135
1.000310188587458
1.0004755388768385
1.000707012138979
1.0010146467060013
1.0014016872016107
1.0018601741508175
1.0023673951334362
1.0028847807320433
1.0033606485992432
1.003737240308252
1.0039611547541951
1.0039949222057258
1.0038265386405958
1.0034738932055531
1.0029822383348272
1.0024149009426213
1.0018396741239606
1.0013148963769454
1.000879383466521
1.0005488510890503
1.00031886986648
1.0001720264214116
1.0000859789774894
1.0000397247416832
1.000016933261986
1.0000066478690868
1.0000024004348242
1.0000007964623414
1.0000002427516885
1.0000000679892778
1.0000000175192543
1.0000000041619652
1.0000000009143446
1.0000000001864946
1.0000000000354827
1.0000000000063305
1.0000000000010647
1.0000000000001692
1.000000000000025
1.0000000000000036
1.0000000000000004
1.0
1.0
1.0
1.0
1.0
1.0
1.0
1.0
1.0
1.0
1.0
1.0
1.0
1.0
1.0
1.0
1.0
1.0
1.0
1.0
1.0
1.0
1.0
1.0
1.0
1.0
1.0
1.0
1.0
1.0
1.0
1.0
1.0
1.0
1.0
1.0
1.0
1.0
1.0
1.0
1.0
1.0
1.0
1.0
1.0
1.0
1.0
1.0
1.0
1.0
1.0
1.0
1.0
1.0
1.0
1.0
1.000277788013954
1.0003282383210232
1.0004823997018133
1.0007615298465924
1.001210948515272
1.0018901633583108
1.0028651891093103
1.0041955441899297
1.0059156227695079
1.0080127702862396
1.0104076545358531
1.0129448158486667
1.0154004801516816
1.0175097204347625
1.0190088751491315
1.0196844044141675
1.0194170058058212
1.0182106476920332
1.0161989859241733
1.0136256230502543
1.0107998825731321
1.0080363330570605
1.0055932627641022
1.0036286931756846
1.002187786543424
1.0012226747276411
1.000631976160485
1.0003015140540374
1.000132536012447
1.0000535860478292
1.0000198991669706
1.0000067797164813
1.0000021180141996
1.0000006067654303
1.000000159541023
1.0000000385720489
1.0000000085989798
1.0000000017744155
1.0000000003405252
1.0000000000611058
1.0000000000103126
1.0000000000016462
1.0000000000002498
1.000000000000036
1.0000000000000049
1.0000000000000004
1.0
1.0
1.0
1.0
1.0
1.0
1.0
1.0
1.0
1.0
1.0
1.0
1.0
1.0
1.0
1.0
1.0
1.0
1.0
1.0
1.0
1.0
1.0
1.0
1.0
1.0
1.0
1.0
1.0
1.0
1.0
1.0
1.0
1.0
1.0
1.0
1.0
1.0
1.0
1.0
1.0
1.0
1.0
1.0
1.0
1.0
1.0
1.0
1.0
1.0
1.0
1.0
1.0
1.0
1.0
1.0010179650709028
1.0012076629128563
1.0017896971091433
1.0028547885959636
1.0045953352496533
1.0072664464842205
1.0111519508615723
1.016503746199031
1.0234566032791226
1.0319377826915137
1.0416060532612932
1.0518499035571904
1.0618512504765034
1.0706958871733243
1.0775002649696144
1.0815299326672
1.0822957071486579
1.0796220538603347
1.0736848623840305
1.065013674075493
1.0544495245905747
1.043047969363026
1.0319245129378272
1.0220601830858316
1.0141157734587294
1.0083234665230099
1.0045093339494366
1.0022413700163668
1.001021559847692
1.0004267689655877
1.0001633301828385
1.0000572281984006
1.0000183489626822
1.0000053832667792
1.000001446063806
1.0000003562049802
1.0000000806669784
1.0000000168561354
1.0000000032652407
1.000000000589608
1.0000000000998481
1.0000000000159581
1.0000000000024216
1.0000000000003508
1.0000000000000484
1.000000000000006
1.0000000000000007
1.0
1.0
1.0
1.0
1.0
1.0
1.0
1.0
1.0
1.0
1.0
1.0
1.0
1.0
1.0
1.0
1.0
1.0
1.0
1.0
1.0
1.0
1.0
1.0
1.0
1.0
1.0
1.0
1.0
1.0
1.0
1.0
1.0
1.0
1.0
1.0
1.0
1.0
1.0
1.0
1.0
1.0
1.0
1.0
1.0
1.0
1.0
1.0
1.0
1.0
1.0
1.0
1.0
1.0
1.0036539622494793
1.0043433458570301
1.0064562419816885
1.0103252893391905
1.0166415116838357
1.026250561816817
1.0399491461186243
1.0582113966921023
1.0809394074020202
1.1073478648813087
1.136031507477429
1.1651736353650552
1.1928065264825654
1.2170409864278018
1.2362227058802948
1.2490204819346338
1.2544739393107638
1.25202945125347
1.2415845251283932
1.2235474514020666
1.1989026438908863
1.1692508848454517
1.1367738328691597
1.1040660840082872
1.0737996954094895
1.048244902064409
1.0287669465344822
1.0155189467284302
1.0075484025495873
1.0033152944086092
1.0013198231765374
1.0004778504562448
1.0001576558782423
1.0000474496267633
1.0000130396464986
1.0000032766724483
1.000000754655801
1.0000001598476462
1.0000000312815556
1.0000000056873761
1.0000000009667358
1.0000000001546532
1.0000000000234381
1.000000000003386
1.0000000000004685
1.000000000000062
1.0000000000000078
1.0000000000000007
1.0
1.0
1.0
1.0
1.0
1.0
1.0
1.0
1.0
1.0
1.0
1.0
1.0
1.0
1.0
1.0
1.0
1.0
1.0
1.0
1.0
1.0
1.0
1.0
1.0
1.0
1.0
1.0
1.0
1.0
1.0
1.0
1.0
1.0
1.0
1.0
1.0
1.0
1.0
1.0
1.0
1.0
1.0
1.0
1.0
1.0
1.0
1.0
1.0
1.0
1.0
1.0
1.0
1.0127153283903336
1.0150702607636573
1.0221835340753318
1.0348797908859928
1.0548048112305737
1.0834218371951432
1.121321842813214
1.1677963729139176
1.2208671949848442
1.2777000093974247
1.3351572984059557
1.390262768641874
1.440473723754097
1.4837658193528578
1.5185821730066218
1.543718197576683
1.5582093814059417
1.5612609312265449
1.552240163930518
1.5307439785968793
1.4967496934548665
1.4508460118668822
1.3945127330343832
1.3303732913854476
1.2622911411765954
1.1951486418393837
1.1341860380075428
1.0839287114335399
1.046981332128631
1.0232334768044493
1.010101158917526
1.0038830157489578
1.0013351441256688
1.0004145480376314
1.0001168660983986
1.000030009091148
1.0000070383290833
1.0000015129161675
1.0000002993834778
1.000000054843945