# vtk DataFile Version 3.0 
shock_diffraction_time_series_277_.vtk
ASCII
DATASET UNSTRUCTURED_GRID
POINTS         10201 double
0.0 0.0 0.0
0.01 0.0 0.0
0.02 0.0 0.0
0.03 0.0 0.0
0.04 0.0 0.0
0.05 0.0 0.0
0.06 0.0 0.0
0.07 0.0 0.0
0.08 0.0 0.0
0.09 0.0 0.0
0.1 0.0 0.0
0.11 0.0 0.0
0.12 0.0 0.0
0.13 0.0 0.0
0.14 0.0 0.0
0.15 0.0 0.0
0.16 0.0 0.0
0.17 0.0 0.0
0.18 0.0 0.0
0.19 0.0 0.0
0.2 0.0 0.0
0.21 0.0 0.0
0.22 0.0 0.0
0.23 0.0 0.0
0.24 0.0 0.0
0.25 0.0 0.0
0.26 0.0 0.0
0.27 0.0 0.0
0.28 0.0 0.0
0.29 0.0 0.0
0.3 0.0 0.0
0.31 0.0 0.0
0.32 0.0 0.0
0.33 0.0 0.0
0.34 0.0 0.0
0.35000000000000003 0.0 0.0
0.36 0.0 0.0
0.37 0.0 0.0
0.38 0.0 0.0
0.39 0.0 0.0
0.4 0.0 0.0
0.41000000000000003 0.0 0.0
0.42 0.0 0.0
0.43 0.0 0.0
0.44 0.0 0.0
0.45 0.0 0.0
0.46 0.0 0.0
0.47000000000000003 0.0 0.0
0.48 0.0 0.0
0.49 0.0 0.0
0.5 0.0 0.0
0.51 0.0 0.0
0.52 0.0 0.0
0.53 0.0 0.0
0.54 0.0 0.0
0.55 0.0 0.0
0.56 0.0 0.0
0.5700000000000001 0.0 0.0
0.58 0.0 0.0
0.59 0.0 0.0
0.6 0.0 0.0
0.61 0.0 0.0
0.62 0.0 0.0
0.63 0.0 0.0
0.64 0.0 0.0
0.65 0.0 0.0
0.66 0.0 0.0
0.67 0.0 0.0
0.68 0.0 0.0
0.6900000000000001 0.0 0.0
0.7000000000000001 0.0 0.0
0.71 0.0 0.0
0.72 0.0 0.0
0.73 0.0 0.0
0.74 0.0 0.0
0.75 0.0 0.0
0.76 0.0 0.0
0.77 0.0 0.0
0.78 0.0 0.0
0.79 0.0 0.0
0.8 0.0 0.0
0.81 0.0 0.0
0.8200000000000001 0.0 0.0
0.8300000000000001 0.0 0.0
0.84 0.0 0.0
0.85 0.0 0.0
0.86 0.0 0.0
0.87 0.0 0.0
0.88 0.0 0.0
0.89 0.0 0.0
0.9 0.0 0.0
0.91 0.0 0.0
0.92 0.0 0.0
0.93 0.0 0.0
0.9400000000000001 0.0 0.0
0.9500000000000001 0.0 0.0
0.96 0.0 0.0
0.97 0.0 0.0
0.98 0.0 0.0
0.99 0.0 0.0
1.0 0.0 0.0
0.0 0.01 0.0
0.01 0.01 0.0
0.02 0.01 0.0
0.03 0.01 0.0
0.04 0.01 0.0
0.05 0.01 0.0
0.06 0.01 0.0
0.07 0.01 0.0
0.08 0.01 0.0
0.09 0.01 0.0
0.1 0.01 0.0
0.11 0.01 0.0
0.12 0.01 0.0
0.13 0.01 0.0
0.14 0.01 0.0
0.15 0.01 0.0
0.16 0.01 0.0
0.17 0.01 0.0
0.18 0.01 0.0
0.19 0.01 0.0
0.2 0.01 0.0
0.21 0.01 0.0
0.22 0.01 0.0
0.23 0.01 0.0
0.24 0.01 0.0
0.25 0.01 0.0
0.26 0.01 0.0
0.27 0.01 0.0
0.28 0.01 0.0
0.29 0.01 0.0
0.3 0.01 0.0
0.31 0.01 0.0
0.32 0.01 0.0
0.33 0.01 0.0
0.34 0.01 0.0
0.35000000000000003 0.01 0.0
0.36 0.01 0.0
0.37 0.01 0.0
0.38 0.01 0.0
0.39 0.01 0.0
0.4 0.01 0.0
0.41000000000000003 0.01 0.0
0.42 0.01 0.0
0.43 0.01 0.0
0.44 0.01 0.0
0.45 0.01 0.0
0.46 0.01 0.0
0.47000000000000003 0.01 0.0
0.48 0.01 0.0
0.49 0.01 0.0
0.5 0.01 0.0
0.51 0.01 0.0
0.52 0.01 0.0
0.53 0.01 0.0
0.54 0.01 0.0
0.55 0.01 0.0
0.56 0.01 0.0
0.5700000000000001 0.01 0.0
0.58 0.01 0.0
0.59 0.01 0.0
0.6 0.01 0.0
0.61 0.01 0.0
0.62 0.01 0.0
0.63 0.01 0.0
0.64 0.01 0.0
0.65 0.01 0.0
0.66 0.01 0.0
0.67 0.01 0.0
0.68 0.01 0.0
0.6900000000000001 0.01 0.0
0.7000000000000001 0.01 0.0
0.71 0.01 0.0
0.72 0.01 0.0
0.73 0.01 0.0
0.74 0.01 0.0
0.75 0.01 0.0
0.76 0.01 0.0
0.77 0.01 0.0
0.78 0.01 0.0
0.79 0.01 0.0
0.8 0.01 0.0
0.81 0.01 0.0
0.8200000000000001 0.01 0.0
0.8300000000000001 0.01 0.0
0.84 0.01 0.0
0.85 0.01 0.0
0.86 0.01 0.0
0.87 0.01 0.0
0.88 0.01 0.0
0.89 0.01 0.0
0.9 0.01 0.0
0.91 0.01 0.0
0.92 0.01 0.0
0.93 0.01 0.0
0.9400000000000001 0.01 0.0
0.9500000000000001 0.01 0.0
0.96 0.01 0.0
0.97 0.01 0.0
0.98 0.01 0.0
0.99 0.01 0.0
1.0 0.01 0.0
0.0 0.02 0.0
0.01 0.02 0.0
0.02 0.02 0.0
0.03 0.02 0.0
0.04 0.02 0.0
0.05 0.02 0.0
0.06 0.02 0.0
0.07 0.02 0.0
0.08 0.02 0.0
0.09 0.02 0.0
0.1 0.02 0.0
0.11 0.02 0.0
0.12 0.02 0.0
0.13 0.02 0.0
0.14 0.02 0.0
0.15 0.02 0.0
0.16 0.02 0.0
0.17 0.02 0.0
0.18 0.02 0.0
0.19 0.02 0.0
0.2 0.02 0.0
0.21 0.02 0.0
0.22 0.02 0.0
0.23 0.02 0.0
0.24 0.02 0.0
0.25 0.02 0.0
0.26 0.02 0.0
0.27 0.02 0.0
0.28 0.02 0.0
0.29 0.02 0.0
0.3 0.02 0.0
0.31 0.02 0.0
0.32 0.02 0.0
0.33 0.02 0.0
0.34 0.02 0.0
0.35000000000000003 0.02 0.0
0.36 0.02 0.0
0.37 0.02 0.0
0.38 0.02 0.0
0.39 0.02 0.0
0.4 0.02 0.0
0.41000000000000003 0.02 0.0
0.42 0.02 0.0
0.43 0.02 0.0
0.44 0.02 0.0
0.45 0.02 0.0
0.46 0.02 0.0
0.47000000000000003 0.02 0.0
0.48 0.02 0.0
0.49 0.02 0.0
0.5 0.02 0.0
0.51 0.02 0.0
0.52 0.02 0.0
0.53 0.02 0.0
0.54 0.02 0.0
0.55 0.02 0.0
0.56 0.02 0.0
0.5700000000000001 0.02 0.0
0.58 0.02 0.0
0.59 0.02 0.0
0.6 0.02 0.0
0.61 0.02 0.0
0.62 0.02 0.0
0.63 0.02 0.0
0.64 0.02 0.0
0.65 0.02 0.0
0.66 0.02 0.0
0.67 0.02 0.0
0.68 0.02 0.0
0.6900000000000001 0.02 0.0
0.7000000000000001 0.02 0.0
0.71 0.02 0.0
0.72 0.02 0.0
0.73 0.02 0.0
0.74 0.02 0.0
0.75 0.02 0.0
0.76 0.02 0.0
0.77 0.02 0.0
0.78 0.02 0.0
0.79 0.02 0.0
0.8 0.02 0.0
0.81 0.02 0.0
0.8200000000000001 0.02 0.0
0.8300000000000001 0.02 0.0
0.84 0.02 0.0
0.85 0.02 0.0
0.86 0.02 0.0
0.87 0.02 0.0
0.88 0.02 0.0
0.89 0.02 0.0
0.9 0.02 0.0
0.91 0.02 0.0
0.92 0.02 0.0
0.93 0.02 0.0
0.9400000000000001 0.02 0.0
0.9500000000000001 0.02 0.0
0.96 0.02 0.0
0.97 0.02 0.0
0.98 0.02 0.0
0.99 0.02 0.0
1.0 0.02 0.0
0.0 0.03 0.0
0.01 0.03 0.0
0.02 0.03 0.0
0.03 0.03 0.0
0.04 0.03 0.0
0.05 0.03 0.0
0.06 0.03 0.0
0.07 0.03 0.0
0.08 0.03 0.0
0.09 0.03 0.0
0.1 0.03 0.0
0.11 0.03 0.0
0.12 0.03 0.0
0.13 0.03 0.0
0.14 0.03 0.0
0.15 0.03 0.0
0.16 0.03 0.0
0.17 0.03 0.0
0.18 0.03 0.0
0.19 0.03 0.0
0.2 0.03 0.0
0.21 0.03 0.0
0.22 0.03 0.0
0.23 0.03 0.0
0.24 0.03 0.0
0.25 0.03 0.0
0.26 0.03 0.0
0.27 0.03 0.0
0.28 0.03 0.0
0.29 0.03 0.0
0.3 0.03 0.0
0.31 0.03 0.0
0.32 0.03 0.0
0.33 0.03 0.0
0.34 0.03 0.0
0.35000000000000003 0.03 0.0
0.36 0.03 0.0
0.37 0.03 0.0
0.38 0.03 0.0
0.39 0.03 0.0
0.4 0.03 0.0
0.41000000000000003 0.03 0.0
0.42 0.03 0.0
0.43 0.03 0.0
0.44 0.03 0.0
0.45 0.03 0.0
0.46 0.03 0.0
0.47000000000000003 0.03 0.0
0.48 0.03 0.0
0.49 0.03 0.0
0.5 0.03 0.0
0.51 0.03 0.0
0.52 0.03 0.0
0.53 0.03 0.0
0.54 0.03 0.0
0.55 0.03 0.0
0.56 0.03 0.0
0.5700000000000001 0.03 0.0
0.58 0.03 0.0
0.59 0.03 0.0
0.6 0.03 0.0
0.61 0.03 0.0
0.62 0.03 0.0
0.63 0.03 0.0
0.64 0.03 0.0
0.65 0.03 0.0
0.66 0.03 0.0
0.67 0.03 0.0
0.68 0.03 0.0
0.6900000000000001 0.03 0.0
0.7000000000000001 0.03 0.0
0.71 0.03 0.0
0.72 0.03 0.0
0.73 0.03 0.0
0.74 0.03 0.0
0.75 0.03 0.0
0.76 0.03 0.0
0.77 0.03 0.0
0.78 0.03 0.0
0.79 0.03 0.0
0.8 0.03 0.0
0.81 0.03 0.0
0.8200000000000001 0.03 0.0
0.8300000000000001 0.03 0.0
0.84 0.03 0.0
0.85 0.03 0.0
0.86 0.03 0.0
0.87 0.03 0.0
0.88 0.03 0.0
0.89 0.03 0.0
0.9 0.03 0.0
0.91 0.03 0.0
0.92 0.03 0.0
0.93 0.03 0.0
0.9400000000000001 0.03 0.0
0.9500000000000001 0.03 0.0
0.96 0.03 0.0
0.97 0.03 0.0
0.98 0.03 0.0
0.99 0.03 0.0
1.0 0.03 0.0
0.0 0.04 0.0
0.01 0.04 0.0
0.02 0.04 0.0
0.03 0.04 0.0
0.04 0.04 0.0
0.05 0.04 0.0
0.06 0.04 0.0
0.07 0.04 0.0
0.08 0.04 0.0
0.09 0.04 0.0
0.1 0.04 0.0
0.11 0.04 0.0
0.12 0.04 0.0
0.13 0.04 0.0
0.14 0.04 0.0
0.15 0.04 0.0
0.16 0.04 0.0
0.17 0.04 0.0
0.18 0.04 0.0
0.19 0.04 0.0
0.2 0.04 0.0
0.21 0.04 0.0
0.22 0.04 0.0
0.23 0.04 0.0
0.24 0.04 0.0
0.25 0.04 0.0
0.26 0.04 0.0
0.27 0.04 0.0
0.28 0.04 0.0
0.29 0.04 0.0
0.3 0.04 0.0
0.31 0.04 0.0
0.32 0.04 0.0
0.33 0.04 0.0
0.34 0.04 0.0
0.35000000000000003 0.04 0.0
0.36 0.04 0.0
0.37 0.04 0.0
0.38 0.04 0.0
0.39 0.04 0.0
0.4 0.04 0.0
0.41000000000000003 0.04 0.0
0.42 0.04 0.0
0.43 0.04 0.0
0.44 0.04 0.0
0.45 0.04 0.0
0.46 0.04 0.0
0.47000000000000003 0.04 0.0
0.48 0.04 0.0
0.49 0.04 0.0
0.5 0.04 0.0
0.51 0.04 0.0
0.52 0.04 0.0
0.53 0.04 0.0
0.54 0.04 0.0
0.55 0.04 0.0
0.56 0.04 0.0
0.5700000000000001 0.04 0.0
0.58 0.04 0.0
0.59 0.04 0.0
0.6 0.04 0.0
0.61 0.04 0.0
0.62 0.04 0.0
0.63 0.04 0.0
0.64 0.04 0.0
0.65 0.04 0.0
0.66 0.04 0.0
0.67 0.04 0.0
0.68 0.04 0.0
0.6900000000000001 0.04 0.0
0.7000000000000001 0.04 0.0
0.71 0.04 0.0
0.72 0.04 0.0
0.73 0.04 0.0
0.74 0.04 0.0
0.75 0.04 0.0
0.76 0.04 0.0
0.77 0.04 0.0
0.78 0.04 0.0
0.79 0.04 0.0
0.8 0.04 0.0
0.81 0.04 0.0
0.8200000000000001 0.04 0.0
0.8300000000000001 0.04 0.0
0.84 0.04 0.0
0.85 0.04 0.0
0.86 0.04 0.0
0.87 0.04 0.0
0.88 0.04 0.0
0.89 0.04 0.0
0.9 0.04 0.0
0.91 0.04 0.0
0.92 0.04 0.0
0.93 0.04 0.0
0.9400000000000001 0.04 0.0
0.9500000000000001 0.04 0.0
0.96 0.04 0.0
0.97 0.04 0.0
0.98 0.04 0.0
0.99 0.04 0.0
1.0 0.04 0.0
0.0 0.05 0.0
0.01 0.05 0.0
0.02 0.05 0.0
0.03 0.05 0.0
0.04 0.05 0.0
0.05 0.05 0.0
0.06 0.05 0.0
0.07 0.05 0.0
0.08 0.05 0.0
0.09 0.05 0.0
0.1 0.05 0.0
0.11 0.05 0.0
0.12 0.05 0.0
0.13 0.05 0.0
0.14 0.05 0.0
0.15 0.05 0.0
0.16 0.05 0.0
0.17 0.05 0.0
0.18 0.05 0.0
0.19 0.05 0.0
0.2 0.05 0.0
0.21 0.05 0.0
0.22 0.05 0.0
0.23 0.05 0.0
0.24 0.05 0.0
0.25 0.05 0.0
0.26 0.05 0.0
0.27 0.05 0.0
0.28 0.05 0.0
0.29 0.05 0.0
0.3 0.05 0.0
0.31 0.05 0.0
0.32 0.05 0.0
0.33 0.05 0.0
0.34 0.05 0.0
0.35000000000000003 0.05 0.0
0.36 0.05 0.0
0.37 0.05 0.0
0.38 0.05 0.0
0.39 0.05 0.0
0.4 0.05 0.0
0.41000000000000003 0.05 0.0
0.42 0.05 0.0
0.43 0.05 0.0
0.44 0.05 0.0
0.45 0.05 0.0
0.46 0.05 0.0
0.47000000000000003 0.05 0.0
0.48 0.05 0.0
0.49 0.05 0.0
0.5 0.05 0.0
0.51 0.05 0.0
0.52 0.05 0.0
0.53 0.05 0.0
0.54 0.05 0.0
0.55 0.05 0.0
0.56 0.05 0.0
0.5700000000000001 0.05 0.0
0.58 0.05 0.0
0.59 0.05 0.0
0.6 0.05 0.0
0.61 0.05 0.0
0.62 0.05 0.0
0.63 0.05 0.0
0.64 0.05 0.0
0.65 0.05 0.0
0.66 0.05 0.0
0.67 0.05 0.0
0.68 0.05 0.0
0.6900000000000001 0.05 0.0
0.7000000000000001 0.05 0.0
0.71 0.05 0.0
0.72 0.05 0.0
0.73 0.05 0.0
0.74 0.05 0.0
0.75 0.05 0.0
0.76 0.05 0.0
0.77 0.05 0.0
0.78 0.05 0.0
0.79 0.05 0.0
0.8 0.05 0.0
0.81 0.05 0.0
0.8200000000000001 0.05 0.0
0.8300000000000001 0.05 0.0
0.84 0.05 0.0
0.85 0.05 0.0
0.86 0.05 0.0
0.87 0.05 0.0
0.88 0.05 0.0
0.89 0.05 0.0
0.9 0.05 0.0
0.91 0.05 0.0
0.92 0.05 0.0
0.93 0.05 0.0
0.9400000000000001 0.05 0.0
0.9500000000000001 0.05 0.0
0.96 0.05 0.0
0.97 0.05 0.0
0.98 0.05 0.0
0.99 0.05 0.0
1.0 0.05 0.0
0.0 0.06 0.0
0.01 0.06 0.0
0.02 0.06 0.0
0.03 0.06 0.0
0.04 0.06 0.0
0.05 0.06 0.0
0.06 0.06 0.0
0.07 0.06 0.0
0.08 0.06 0.0
0.09 0.06 0.0
0.1 0.06 0.0
0.11 0.06 0.0
0.12 0.06 0.0
0.13 0.06 0.0
0.14 0.06 0.0
0.15 0.06 0.0
0.16 0.06 0.0
0.17 0.06 0.0
0.18 0.06 0.0
0.19 0.06 0.0
0.2 0.06 0.0
0.21 0.06 0.0
0.22 0.06 0.0
0.23 0.06 0.0
0.24 0.06 0.0
0.25 0.06 0.0
0.26 0.06 0.0
0.27 0.06 0.0
0.28 0.06 0.0
0.29 0.06 0.0
0.3 0.06 0.0
0.31 0.06 0.0
0.32 0.06 0.0
0.33 0.06 0.0
0.34 0.06 0.0
0.35000000000000003 0.06 0.0
0.36 0.06 0.0
0.37 0.06 0.0
0.38 0.06 0.0
0.39 0.06 0.0
0.4 0.06 0.0
0.41000000000000003 0.06 0.0
0.42 0.06 0.0
0.43 0.06 0.0
0.44 0.06 0.0
0.45 0.06 0.0
0.46 0.06 0.0
[...]
POINT_DATA  10201
FIELD  FlowField  5
Density    1 10201  double
6.531587479476637
6.5216479634627476
6.483669391970219
6.400393135405958
6.259140584991431
6.063041819495238
5.834762348190683
5.598512901128938
5.341276992740882
5.005309257687381
4.550517023775896
4.014400870578874
3.489966739370404
3.056886709039893
2.7417337102282766
2.5282773786863393
2.386182055089526
2.2894151002533922
2.2208610646329943
2.1704803439711204
2.1325325392548486
2.1036397378285594
2.0817034705351394
2.0653416947866505
2.053597161397792
2.0457822826117087
2.0413936927918077
2.0400635512774405
2.041530768550727
2.045623109025229
2.0522449907451588
2.0613678247499436
2.0730208978573748
2.0872815915266574
2.104264385035351
2.1241086990119014
2.1469661744485524
2.1729883687481433
2.202315993780889
2.235070682940698
2.271349902120422
2.311225136029317
2.3547430351598595
2.401928915922637
2.4527919135204117
2.5073311711879205
2.565542646040611
2.627426349575298
2.6929940659694616
2.7622777759206265
2.8353391528261183
2.912280602470167
2.993258408346664
3.07849864846051
3.16831667625086
3.263141043353259
3.363542567268846
3.4702685582760155
3.5842813370174573
3.706799941973971
3.8393422195297138
3.983760574276893
4.142260233650334
4.317376615802068
4.511828770252149
4.728344526617402
4.969435689860777
5.236956033412479
5.531506094877843
5.851742858951276
6.19367720043488
6.550155753096344
6.910813751758701
7.262778728749138
7.5921430135329295
7.8856857855102
8.131900968595286
8.321337291334121
8.448132175720268
8.514353669732277
8.534322695372687
8.532606276877132
8.534569763186251
8.556776682986342
8.60418233076048
8.67360279340755
8.758708279308063
8.853343777560568
8.952798987828373
9.053862030707716
9.154425761136922
9.253040990752652
9.348550404101521
9.439821450011527
9.525563453057341
9.604217716533762
9.67392279772487
9.73256250127218
9.777911631520578
9.807942593401808
9.818900329046038
6.333091751301905
6.331526871277941
6.3148528746408035
6.258239064953365
6.143352309684376
5.971140748990201
5.763963054063119
5.5449637516170345
5.2989164782600575
4.9677893209637585
4.514608223935815
3.9801933211275404
3.4583027141601903
3.027517171812821
2.7133930411776825
2.4996362252888407
2.35641365329855
2.258236506751444
2.1883583620655456
2.1369342456519647
2.098304245869966
2.069108550043719
2.047236548653969
2.031281682530061
2.0202592752853743
2.013456167741755
2.010347427574074
2.0105483619443123
2.0137856998750223
2.0198792993853614
2.0287294270990435
2.0403065688605935
2.0546418186446513
2.0718166370160147
2.0919514020566705
2.11519277695258
2.1417004647542677
2.171634322895409
2.2051429705656735
2.242354896220318
2.283372704566181
2.3282706561077444
2.3770952006705697
2.429867909540947
2.486590117929047
2.5472486775392706
2.6118224220740442
2.680289193195554
2.752633505415416
2.8288551166595295
2.9089789105871295
2.993066596106898
3.0812308055471296
3.173652242054609
3.2706005884743776
3.3724598878205856
3.4797588839517513
3.5932061979532155
3.713729371579497
3.842516116968561
3.9810541554557988
4.131162398604939
4.295001952742629
4.475046800730402
4.6739617128019
4.8944196376418425
5.138802587420419
5.408775124014277
5.704781340247466
6.025415079829143
6.366786299295569
6.722065657377888
7.081393449925655
7.43232456161551
7.760776473586657
8.052166751224338
8.292423437481723
8.469420097949081
8.576308773946927
8.616835569432556
8.608685517262336
8.579518093023754
8.556427303787379
8.556534442651476
8.584791766074602
8.637830498920186
8.70908168260563
8.792133163319662
8.882023153921097
8.975312908887691
9.069702213467703
9.163582495237355
9.255664611838103
9.344701237387946
9.429287528019865
9.507726306379055
9.577960240104606
9.637590559281758
9.68402682086758
9.714864087806793
9.726110316646011
5.845570996265233
5.860898179065885
5.888481241826341
5.890095777337666
5.836424403814863
5.723411018642635
5.571170822663154
5.397345016567413
5.1789501561307265
4.857840958164247
4.407120358162848
3.877181570794799
3.3632861429829313
2.940287634157331
2.6306139688621046
2.417723853299761
2.2731766152201707
2.1729796202795577
2.1013734173218785
2.0490039070360337
2.0103873231393754
1.9821770077286551
1.9622038363337566
1.9489791545146224
1.941435932663902
1.9387885363181372
1.9404528021446799
1.9459981313967107
1.95511735500433
1.9676067220350126
1.9833515424788262
2.0023146246781343
2.02452556134178
2.0500695680233845
2.0790751732428436
2.1117006688172646
2.1481198156714836
2.188507758495998
2.2330283147804164
2.281823708551821
2.3350074548045208
2.3926605975417914
2.454831029537015
2.5215353088685104
2.5927622913345694
2.6684779948688857
2.7486313302624223
2.8331605924889605
2.9220008489224893
3.0150925518414526
3.112391832521138
3.2138830084811154
3.319593862898782
3.429614238254986
3.54411841655561
3.6633916005202596
3.787860498177266
3.9181274731060585
4.0550069086535885
4.199561244795584
4.353132151809446
4.517359450091834
4.694176914361133
4.885770162001862
5.094478353796756
5.3226169753427675
5.572171600968877
5.844433941557567
6.13959504780966
6.456186079176698
6.790563337918486
7.136517413391825
7.484934294098775
7.823645664463847
8.137567107664413
8.409316215587847
8.620890287259677
8.7572777264898
8.81219211105622
8.793712529722573
8.725191469027648
8.638450684371518
8.562480033829024
8.515009761152374
8.501265321102807
8.518044282189235
8.558743999824777
8.616688104998147
8.686496280016234
8.764256586572376
8.847211062060243
8.933339930554766
9.020989409554126
9.108570546276622
9.194312541029394
9.276057243528504
9.351104964034427
9.416167534231613
9.467555604648476
9.50178210571111
9.514208633257054
5.270706567341753
5.298877125882518
5.362981367755551
5.419135932926496
5.431222843530991
5.389955598853824
5.308687115782712
5.1917556575564445
5.003298123738206
4.6882316316603205
4.236971242829143
3.7133596314820765
3.213156758125463
2.8045189146732277
2.504921143605766
2.2973348361224217
2.155218614504504
2.056591604563834
1.9869560431503221
1.9375195682215172
1.902940883863335
1.8798197964789347
1.8658639644906208
1.8594517643976103
1.8593975324861955
1.8648181841439169
1.8750526913108585
1.8896109772549483
1.9081402482525336
1.9304020514144202
1.9562558516740294
1.985646197443135
2.018591308360804
2.055171521877675
2.0955166492821444
2.139791965312541
2.1881832336396676
2.240881722551323
2.2980704463387456
2.3599127981290438
2.426544357280717
2.4980681071219824
2.574552778575345
2.6560336943615765
2.7425153879101485
2.8339753801579417
2.9303687330698023
3.0316332743610315
3.1376956390255577
3.2484784569425833
3.363909124937556
3.4839306376038874
3.6085149083818138
3.7376789122403533
3.871503820721082
4.010157033466
4.15391667043605
4.3031976377620245
4.4585777526944455
4.620821564967116
4.790898295011766
4.969988629228089
5.1594729389154415
5.360890987544799
5.575860972066074
5.8059447492417915
6.052447715037131
6.316145459976311
6.596927086848938
6.893320868854664
7.202014908218346
7.517362980379646
7.83082725460296
8.130623921663393
8.40173944956619
8.626743683429204
8.78816990833079
8.872844361303422
8.877384627946137
8.812275420792686
8.701159950806753
8.574201900615106
8.458675736256362
8.372153563738326
8.321249825810426
8.304637808683676
8.317152556838636
8.35280834767547
8.406288043560961
8.473356002685142
8.550749527166234
8.635890531157065
8.726561731257462
8.82059586083464
8.915574713729292
9.008538352349174
9.095736501614777
9.172530010635933
9.233672136790979
9.274245587701849
9.288837617240935
4.738002892398235
4.770965707479431
4.853197356366826
4.946205154146162
5.014334397016903
5.043169101035908
5.032857411808177
4.967140077865974
4.797282564004936
4.4780895725973995
4.022369171871381
3.507273370735431
3.0263682009421116
2.6387462588082373
2.355904887004532
2.1601044708025032
2.026704907469858
1.9357006919678752
1.873753171297635
1.8325138269348031
1.8066918239025678
1.7927803382922578
1.7883444363851282
1.7916323515875323
1.801353751228971
1.8165451183390484
1.836483788009599
1.8606314314243093
1.888596468495546
1.9201089213384186
1.9550032156801165
1.99320554185396
2.034723133866607
2.0796334884631493
2.1280722672131454
2.1802194353427713
2.236284012583872
2.296488480027064
2.3610542277437174
2.430189349557091
2.504079647258525
2.5828830785982735
2.6667272969666245
2.7557095564097853
2.8498981532196033
2.949334698358999
3.0540367655677727
3.1640007613518146
3.2792050548846383
3.3996136499660383
3.525180831034969
3.655856893458166
3.7915952837504374
3.9323616545820905
4.078144799822109
4.22896888686088
4.384906397469259
4.5460910765154425
4.712729855320551
4.885112793672016
5.063619976320123
5.24872388520286
5.440984704617582
5.64103394386315
5.849538665939252
6.06713508426018
6.294317858277202
6.531271548397369
6.777631687580826
7.0321631630298445
7.292338414657734
7.553814318639707
7.809895195566833
8.051219615883376
8.265942931113347
8.440615325140847
8.562132804235139
8.620955764012914
8.61486501288762
8.55155820982223
8.448201869824977
8.327372059486684
8.211066683130088
8.115744357103708
8.050398104279601
8.017510281346844
8.01535008725708
8.040174875963755
8.087708522608374
8.153889033004592
8.235118777907113
8.328234405978371
8.430320406062016
8.53844467889541
8.649347494518288
8.759102138900317
8.862806605710633
8.954467520419264
9.027387562006517
9.075397452401036
9.092490622479419
4.286026567281814
4.318005587231914
4.405044973323238
4.521662860938669
4.6369030585153475
4.728876994783713
4.778057702329155
4.745340463285294
4.575879416592427
4.242200152844325
3.780623761958099
3.2780782604161
2.822396344707264
2.4621478719351297
2.2025831792666435
2.0251022529078924
1.9066510462663369
1.8288433096666097
1.779237115224153
1.7497969804919347
1.7352581943859957
1.732047358837466
1.7376559193265186
1.7502768680037546
1.7685838314650477
1.7915903543682332
1.8185579975811472
1.8489361896209764
1.8823234373136803
1.9184428106538052
1.9571264322650674
1.998304849065657
2.0419980515789815
2.088305765133873
2.1373955842429995
2.1894885565196613
2.2448428218700682
2.303736670007747
2.3664527015393277
2.4332645933868937
2.5044273808873507
2.580171412794381
2.6606994721154824
2.7461861642862164
2.836778612133621
2.9325977104496133
3.033739916425186
3.1402783397736096
3.2522611505942836
3.369709642487037
3.492618044460702
3.62095402383279
3.7546596394739904
3.893652853766758
4.0378294089851465
4.187064885937389
4.341216593294307
4.500125021597953
4.663614983673206
4.831497079984054
5.003571036170717
5.179632953565559
5.359488269715577
5.542970412419991
5.729961418266871
5.9204057081164585
6.114302925508043
6.3116606482737625
6.512377422365022
6.716009731470007
6.921394266487821
7.126218406354093
7.326644699916681
7.5169815513074205
7.689763291421995
7.836361719371553
7.94812758445011
8.018251083991817
8.043901269783541
8.027802863208414
7.978441904019537
7.908605107609077
7.832749722219656
7.764234652017766
7.713346526057796
7.686499656586264
7.68644810890973
7.7130872803546024
7.764427862105685
7.83746318544864
7.928778365963767
8.034867866903427
8.152204627849917
8.2771212651945
8.405561891646155
8.53274984140565
8.652852774152729
8.75884005898158
8.842911600706625
8.897906388730641
8.917341286334043
3.911484124128359
3.9404655346050297
4.0280598340338445
4.164286916177789
4.321866369398223
4.46648759770322
4.555310849093837
4.531275084658905
4.344259122142952
3.9899870439190046
3.5253958628517177
3.0417411171316715
2.6176805209298237
2.2905440861027606
2.059568033328739
1.90528715466423
1.8059150832533233
1.7443554305164928
1.7088969815287591
1.6918160376734452
1.687971333673163
1.6938568749927054
1.707023692738491
1.7257254560823003
1.748694522645279
1.77499748757955
1.8039420308278202
1.8350180537247551
1.867861803965782
1.9022348463348897
1.9380116827460954
1.9751712198311175
2.0137884844495373
2.0540241890870643
2.096111012325749
2.14033671801222
2.1870253128860413
2.2365181160599485
2.289156730954283
2.3452694777862817
2.405162047838251
2.46911226792651
2.5373681892971587
2.6101484955526546
2.6876455265253605
2.7700290081457104
2.857443730559668
2.950004740309347
3.047795556420629
3.1508665307126997
3.2592324553003666
3.3728697383542925
3.491713355608053
3.61565328864079
3.7445304847277177
3.8781327114612707
4.016190444475463
4.158373116536277
4.304286828924624
4.453475430744359
4.605427939460129
4.759596110928704
4.915426176396293
5.072407226323769
5.2301348392778
5.388381943728534
5.547157778295579
5.706717613391922
5.8674669789729075
6.02972902226754
6.193461003411806
6.358011446313305
6.52184819116388
6.682259740341204
6.835344322286812
6.976293483008245
7.099922740585118
7.20154638781533
7.277941876159062
7.32811615430873
7.353717698251574
7.359047748119782
7.350693694391296
7.336820971751326
7.326151792127797
7.326754061366779
7.344931867133341
7.384536393463143
7.4468570061605766
7.531032534727146
7.634703510802067
7.754612652362069
7.886994559443173
8.027705815789563
8.17212674953516
8.314893147821467
8.449547733068734
8.568324127656107
8.662520243989713
8.723981695256203
8.745610802680812
3.602756452885581
3.629700183419797
3.720374776619211
3.877962859668481
4.073634233576546
4.255627441067528
4.359381816937022
4.320372874622244
4.103375565168258
3.7284201939680703
3.2675580542184557
2.810564094377478
2.424264865348937
2.134694639878297
1.9356284003389754
1.8069099465027687
1.7278981767673918
1.6826819335382281
1.6603178543128354
1.6535372952013052
1.65750119368336
1.6689387689980437
1.6855999939831707
1.7059098064998826
1.728747614619706
1.7533066388106318
1.779005699065212
1.8054358160988975
1.832329367293075
1.859542775056692
1.887045955172681
1.9149135568491906
1.943314649146171
1.9724990620872174
2.0027800610556374
2.034514301173597
2.068080897502886
2.103861800657292
2.142225437684881
2.1835148763273873
2.228040844903353
2.276079094892508
2.327871269080075
2.383630415608258
2.44354727107396
2.507787754694439
2.576487825554233
2.649753357568386
2.727661916575534
2.8102633333259663
2.89757729423635
2.989589440865986
3.0862466505231865
3.1874516718656034
3.2930575020020907
3.4028617826784515
3.5166017262486466
3.6339504632355717
3.754516201940667
3.8778464695584645
4.003440490727888
4.130773457644408
4.259336255616513
4.3886924739215925
4.518549890872448
4.648834231696191
4.7797381338369975
4.911704278716732
5.0453213451248535
5.181197264857406
5.31988184948661
5.461734838689046
5.60660774432327
5.753624912185933
5.901196772841709
6.04707771175339
6.188549893066586
6.322725152499963
6.44680029138122
6.558244495434736
6.655054792983868
6.736175824326777
6.802064129562808
6.855242320494081
6.900506170931642
6.944467577605852
6.994407555575342
7.056804146764884
7.1361233223701
7.234298092004362
7.3509012152374495
7.483711095982951
7.629315596912003
7.783519553398698
7.941471297347729
8.097514141496328
8.24483139441477
8.375112078561287
8.478785337015307
8.546511672062419
8.570306296978574
3.350303133890104
3.3777296840443585
3.4767995359647363
3.6579464184170134
3.8840653521780917
4.083789140990765
4.177850881180255
4.106216684841608
3.8545986468576454
3.4644639533830444
3.016446733112387
2.5937725042967035
2.2499282421542786
2.0002971615261496
1.8340458600266412
1.7306962194126
1.670842346463699
1.6398502448874646
1.6277121312130036
1.6278139709626238
1.6358011812206048
1.6487832814536145
1.6648185803760924
1.682586975323445
1.7011838058749462
1.719991246929504
1.7385993415801477
1.756758757253639
1.7743532799286734
1.7913833513867075
1.8079541778402304
1.8242639625982322
1.8405897341020565
1.85726993615193
1.8746843310411698
1.8932327518179766
1.9133147378036561
1.9353120560377464
1.9595756069744543
1.9864174053899417
2.0161074727473762
2.048874943504243
2.084913835470481
2.1243932124093083
2.1674574656590107
2.2142197317690084
2.264766763726798
2.3191667738755837
2.377471730372812
2.4397170681389677
2.505919960750859
2.5760765106717938
2.6501580483287452
2.7281068651788
2.8098317300759943
2.895203566836069
2.984051916164848
3.0761631087377346
3.1712815076999195
3.2691156562872896
3.369351709644722
3.471676716747061
3.5758133885117678
3.681565442824047
3.7888672579335605
3.897823408602809
4.008718627376682
4.121992545891682
4.238217563901374
4.358122290947027
4.4825585123200185
4.6122877508531825
4.7477465337570095
4.889018168877903
5.035820177057938
5.187452468720286
5.3428400751949265
5.500546215043352
5.658667392158109
5.814677558499462
5.965458963465425
6.107627061463268
6.2381536081463835
6.355278536503711
6.459454311000736
6.553856640154359
6.64404331420033
6.736734556529802
6.838178982568299
6.952776647595341
7.082425455253752
7.226616808931354
7.382962266199252
7.547764338861913
7.716363863250503
7.883139253315684
8.04115562905254
8.181685237835001
8.294246176475184
8.368068638287472
8.394006239390809
3.1466070590439963
3.1772448089237857
3.2893791558570538
3.493110891236129
3.73752586361788
3.933857605684125
3.9982863262301436
3.8847359893697067
3.6011757375736604
3.205299658801149
2.779842616603384
2.397699738026647
2.0987370441953206
1.8889850608406813
1.754135976736623
1.6739305064824026
1.6304217335213431
1.6104179149513196
1.605019117930137
1.608424409476586
1.616889487299787
1.6279981453315164
1.6401889388378343
1.6524556252877485
1.6641612507385815
1.6749250750408862
1.6845540550942033
1.693000202052223
1.7003327868358769
1.7067188253941599
1.7124071729986554
1.7177129093775507
1.7230003039807376
1.7286641572337897
1.7351103902520062
1.7427373555986316
1.7519194990451514
1.762994764324215
1.7762565912228714
1.791950670906088
1.8102760319546005
1.831390042341179
1.8554187514995641
1.8824633620923361
1.912595677254005
1.9458624295884572
1.9822971725186422
2.021925226490389
2.0647659322046517
2.1108334170849314
2.1601361792150904
2.2126757498948533
2.2684446674032746
2.32742403159063
2.3895809035448377
2.4548659391348178
2.5232117988405065
2.5945330482683393
2.6687285601608632
2.745687673030315
2.8253013964792584
2.9074795570048133
2.9921735216382914
3.079401592988404
3.1692709627776052
3.261989488324114
3.357868899876036
3.4573399554628685
3.5609983353865067
3.669627279360083
3.7841176677253276
3.9052725841316103
4.033754205009783
4.170137628272113
4.3148478465149225
4.46811454249301
4.629948004485675
4.800020974366778
4.977397855303681
5.1602034167028
5.34551459084693
5.529513875290749
5.707865853402204
5.876465447196198
6.0325032921962665
6.175509300746154
6.307878538661933
6.434493751210013
6.561457553806942
6.694429683331774
6.837266466520271
6.991410584731884
7.156008771974555
7.32840370248033
7.504589660769969
7.679331998443511
7.845821622333386
7.995042227206397
8.115585410439156
8.195076910587483
8.223032050697391
2.9844184923298087
3.0202432769127268
3.14743304358862
3.3684712470468705
3.61604887710282
3.789993718411362
3.8120758964621517
3.6554541738371453
3.348081748760916
2.957717303734807
2.563525942714382
2.2258305066622714
1.9717015319334679
1.7995840544053436
1.6929788515508548
1.6324511457368691
1.6017613902242354
1.5892980731815958
1.587374468722503
1.591081880191858
1.5973408043100303
1.604248386393365
1.6106572355330941
1.6159087124974019
1.6196664884013017
1.6218152960363001
1.6223995514769882
1.6215830439327235
1.6196187616322832
1.6168246379599136
1.6135635382829663
1.6102258539077556
1.6072133449692967
1.6049237526127802
1.6037364935922178
1.6040001775825954
1.606022796625223
1.6100652921450218
1.6163388672134573
1.6250059945671989
1.6361847955563174
1.6499568079720186
1.6663774795205382
1.6854768236090913
1.707259960326968
1.7317189372786124
1.7588414213927117
1.7886147073822944
1.821028150969649
1.8560744437304284
1.8937500046482585
1.9340546961837497
1.9769910663885997
2.0225633276593955
2.070776292730482
2.1216345631575386
2.1751423462070782
2.231304378035555
2.2901285295074434
2.3516306705548016
2.415842140496122
2.482819650980819
2.5526566055540556
2.6254940359565824
2.701529989522636
2.7810300330654574
2.8643474326181524
2.951958528315731
3.0444918091428246
3.1427156232857225
3.247467901275854
3.3595372620506447
3.4797145188808543
3.6088608570523952
3.7478426643366904
3.897507442778801
4.058623741827261
4.2317057836548795
4.416667814612949