# vtk DataFile Version 3.0 
shock_diffraction_time_series_353_.vtk
ASCII
DATASET UNSTRUCTURED_GRID
POINTS         10201 double
0.0 0.0 0.0
0.01 0.0 0.0
0.02 0.0 0.0
0.03 0.0 0.0
0.04 0.0 0.0
0.05 0.0 0.0
0.06 0.0 0.0
0.07 0.0 0.0
0.08 0.0 0.0
0.09 0.0 0.0
0.1 0.0 0.0
0.11 0.0 0.0
0.12 0.0 0.0
0.13 0.0 0.0
0.14 0.0 0.0
0.15 0.0 0.0
0.16 0.0 0.0
0.17 0.0 0.0
0.18 0.0 0.0
0.19 0.0 0.0
0.2 0.0 0.0
0.21 0.0 0.0
0.22 0.0 0.0
0.23 0.0 0.0
0.24 0.0 0.0
0.25 0.0 0.0
0.26 0.0 0.0
0.27 0.0 0.0
0.28 0.0 0.0
0.29 0.0 0.0
0.3 0.0 0.0
0.31 0.0 0.0
0.32 0.0 0.0
0.33 0.0 0.0
0.34 0.0 0.0
0.35000000000000003 0.0 0.0
0.36 0.0 0.0
0.37 0.0 0.0
0.38 0.0 0.0
0.39 0.0 0.0
0.4 0.0 0.0
0.41000000000000003 0.0 0.0
0.42 0.0 0.0
0.43 0.0 0.0
0.44 0.0 0.0
0.45 0.0 0.0
0.46 0.0 0.0
0.47000000000000003 0.0 0.0
0.48 0.0 0.0
0.49 0.0 0.0
0.5 0.0 0.0
0.51 0.0 0.0
0.52 0.0 0.0
0.53 0.0 0.0
0.54 0.0 0.0
0.55 0.0 0.0
0.56 0.0 0.0
0.5700000000000001 0.0 0.0
0.58 0.0 0.0
0.59 0.0 0.0
0.6 0.0 0.0
0.61 0.0 0.0
0.62 0.0 0.0
0.63 0.0 0.0
0.64 0.0 0.0
0.65 0.0 0.0
0.66 0.0 0.0
0.67 0.0 0.0
0.68 0.0 0.0
0.6900000000000001 0.0 0.0
0.7000000000000001 0.0 0.0
0.71 0.0 0.0
0.72 0.0 0.0
0.73 0.0 0.0
0.74 0.0 0.0
0.75 0.0 0.0
0.76 0.0 0.0
0.77 0.0 0.0
0.78 0.0 0.0
0.79 0.0 0.0
0.8 0.0 0.0
0.81 0.0 0.0
0.8200000000000001 0.0 0.0
0.8300000000000001 0.0 0.0
0.84 0.0 0.0
0.85 0.0 0.0
0.86 0.0 0.0
0.87 0.0 0.0
0.88 0.0 0.0
0.89 0.0 0.0
0.9 0.0 0.0
0.91 0.0 0.0
0.92 0.0 0.0
0.93 0.0 0.0
0.9400000000000001 0.0 0.0
0.9500000000000001 0.0 0.0
0.96 0.0 0.0
0.97 0.0 0.0
0.98 0.0 0.0
0.99 0.0 0.0
1.0 0.0 0.0
0.0 0.01 0.0
0.01 0.01 0.0
0.02 0.01 0.0
0.03 0.01 0.0
0.04 0.01 0.0
0.05 0.01 0.0
0.06 0.01 0.0
0.07 0.01 0.0
0.08 0.01 0.0
0.09 0.01 0.0
0.1 0.01 0.0
0.11 0.01 0.0
0.12 0.01 0.0
0.13 0.01 0.0
0.14 0.01 0.0
0.15 0.01 0.0
0.16 0.01 0.0
0.17 0.01 0.0
0.18 0.01 0.0
0.19 0.01 0.0
0.2 0.01 0.0
0.21 0.01 0.0
0.22 0.01 0.0
0.23 0.01 0.0
0.24 0.01 0.0
0.25 0.01 0.0
0.26 0.01 0.0
0.27 0.01 0.0
0.28 0.01 0.0
0.29 0.01 0.0
0.3 0.01 0.0
0.31 0.01 0.0
0.32 0.01 0.0
0.33 0.01 0.0
0.34 0.01 0.0
0.35000000000000003 0.01 0.0
0.36 0.01 0.0
0.37 0.01 0.0
0.38 0.01 0.0
0.39 0.01 0.0
0.4 0.01 0.0
0.41000000000000003 0.01 0.0
0.42 0.01 0.0
0.43 0.01 0.0
0.44 0.01 0.0
0.45 0.01 0.0
0.46 0.01 0.0
0.47000000000000003 0.01 0.0
0.48 0.01 0.0
0.49 0.01 0.0
0.5 0.01 0.0
0.51 0.01 0.0
0.52 0.01 0.0
0.53 0.01 0.0
0.54 0.01 0.0
0.55 0.01 0.0
0.56 0.01 0.0
0.5700000000000001 0.01 0.0
0.58 0.01 0.0
0.59 0.01 0.0
0.6 0.01 0.0
0.61 0.01 0.0
0.62 0.01 0.0
0.63 0.01 0.0
0.64 0.01 0.0
0.65 0.01 0.0
0.66 0.01 0.0
0.67 0.01 0.0
0.68 0.01 0.0
0.6900000000000001 0.01 0.0
0.7000000000000001 0.01 0.0
0.71 0.01 0.0
0.72 0.01 0.0
0.73 0.01 0.0
0.74 0.01 0.0
0.75 0.01 0.0
0.76 0.01 0.0
0.77 0.01 0.0
0.78 0.01 0.0
0.79 0.01 0.0
0.8 0.01 0.0
0.81 0.01 0.0
0.8200000000000001 0.01 0.0
0.8300000000000001 0.01 0.0
0.84 0.01 0.0
0.85 0.01 0.0
0.86 0.01 0.0
0.87 0.01 0.0
0.88 0.01 0.0
0.89 0.01 0.0
0.9 0.01 0.0
0.91 0.01 0.0
0.92 0.01 0.0
0.93 0.01 0.0
0.9400000000000001 0.01 0.0
0.9500000000000001 0.01 0.0
0.96 0.01 0.0
0.97 0.01 0.0
0.98 0.01 0.0
0.99 0.01 0.0
1.0 0.01 0.0
0.0 0.02 0.0
0.01 0.02 0.0
0.02 0.02 0.0
0.03 0.02 0.0
0.04 0.02 0.0
0.05 0.02 0.0
0.06 0.02 0.0
0.07 0.02 0.0
0.08 0.02 0.0
0.09 0.02 0.0
0.1 0.02 0.0
0.11 0.02 0.0
0.12 0.02 0.0
0.13 0.02 0.0
0.14 0.02 0.0
0.15 0.02 0.0
0.16 0.02 0.0
0.17 0.02 0.0
0.18 0.02 0.0
0.19 0.02 0.0
0.2 0.02 0.0
0.21 0.02 0.0
0.22 0.02 0.0
0.23 0.02 0.0
0.24 0.02 0.0
0.25 0.02 0.0
0.26 0.02 0.0
0.27 0.02 0.0
0.28 0.02 0.0
0.29 0.02 0.0
0.3 0.02 0.0
0.31 0.02 0.0
0.32 0.02 0.0
0.33 0.02 0.0
0.34 0.02 0.0
0.35000000000000003 0.02 0.0
0.36 0.02 0.0
0.37 0.02 0.0
0.38 0.02 0.0
0.39 0.02 0.0
0.4 0.02 0.0
0.41000000000000003 0.02 0.0
0.42 0.02 0.0
0.43 0.02 0.0
0.44 0.02 0.0
0.45 0.02 0.0
0.46 0.02 0.0
0.47000000000000003 0.02 0.0
0.48 0.02 0.0
0.49 0.02 0.0
0.5 0.02 0.0
0.51 0.02 0.0
0.52 0.02 0.0
0.53 0.02 0.0
0.54 0.02 0.0
0.55 0.02 0.0
0.56 0.02 0.0
0.5700000000000001 0.02 0.0
0.58 0.02 0.0
0.59 0.02 0.0
0.6 0.02 0.0
0.61 0.02 0.0
0.62 0.02 0.0
0.63 0.02 0.0
0.64 0.02 0.0
0.65 0.02 0.0
0.66 0.02 0.0
0.67 0.02 0.0
0.68 0.02 0.0
0.6900000000000001 0.02 0.0
0.7000000000000001 0.02 0.0
0.71 0.02 0.0
0.72 0.02 0.0
0.73 0.02 0.0
0.74 0.02 0.0
0.75 0.02 0.0
0.76 0.02 0.0
0.77 0.02 0.0
0.78 0.02 0.0
0.79 0.02 0.0
0.8 0.02 0.0
0.81 0.02 0.0
0.8200000000000001 0.02 0.0
0.8300000000000001 0.02 0.0
0.84 0.02 0.0
0.85 0.02 0.0
0.86 0.02 0.0
0.87 0.02 0.0
0.88 0.02 0.0
0.89 0.02 0.0
0.9 0.02 0.0
0.91 0.02 0.0
0.92 0.02 0.0
0.93 0.02 0.0
0.9400000000000001 0.02 0.0
0.9500000000000001 0.02 0.0
0.96 0.02 0.0
0.97 0.02 0.0
0.98 0.02 0.0
0.99 0.02 0.0
1.0 0.02 0.0
0.0 0.03 0.0
0.01 0.03 0.0
0.02 0.03 0.0
0.03 0.03 0.0
0.04 0.03 0.0
0.05 0.03 0.0
0.06 0.03 0.0
0.07 0.03 0.0
0.08 0.03 0.0
0.09 0.03 0.0
0.1 0.03 0.0
0.11 0.03 0.0
0.12 0.03 0.0
0.13 0.03 0.0
0.14 0.03 0.0
0.15 0.03 0.0
0.16 0.03 0.0
0.17 0.03 0.0
0.18 0.03 0.0
0.19 0.03 0.0
0.2 0.03 0.0
0.21 0.03 0.0
0.22 0.03 0.0
0.23 0.03 0.0
0.24 0.03 0.0
0.25 0.03 0.0
0.26 0.03 0.0
0.27 0.03 0.0
0.28 0.03 0.0
0.29 0.03 0.0
0.3 0.03 0.0
0.31 0.03 0.0
0.32 0.03 0.0
0.33 0.03 0.0
0.34 0.03 0.0
0.35000000000000003 0.03 0.0
0.36 0.03 0.0
0.37 0.03 0.0
0.38 0.03 0.0
0.39 0.03 0.0
0.4 0.03 0.0
0.41000000000000003 0.03 0.0
0.42 0.03 0.0
0.43 0.03 0.0
0.44 0.03 0.0
0.45 0.03 0.0
0.46 0.03 0.0
0.47000000000000003 0.03 0.0
0.48 0.03 0.0
0.49 0.03 0.0
0.5 0.03 0.0
0.51 0.03 0.0
0.52 0.03 0.0
0.53 0.03 0.0
0.54 0.03 0.0
0.55 0.03 0.0
0.56 0.03 0.0
0.5700000000000001 0.03 0.0
0.58 0.03 0.0
0.59 0.03 0.0
0.6 0.03 0.0
0.61 0.03 0.0
0.62 0.03 0.0
0.63 0.03 0.0
0.64 0.03 0.0
0.65 0.03 0.0
0.66 0.03 0.0
0.67 0.03 0.0
0.68 0.03 0.0
0.6900000000000001 0.03 0.0
0.7000000000000001 0.03 0.0
0.71 0.03 0.0
0.72 0.03 0.0
0.73 0.03 0.0
0.74 0.03 0.0
0.75 0.03 0.0
0.76 0.03 0.0
0.77 0.03 0.0
0.78 0.03 0.0
0.79 0.03 0.0
0.8 0.03 0.0
0.81 0.03 0.0
0.8200000000000001 0.03 0.0
0.8300000000000001 0.03 0.0
0.84 0.03 0.0
0.85 0.03 0.0
0.86 0.03 0.0
0.87 0.03 0.0
0.88 0.03 0.0
0.89 0.03 0.0
0.9 0.03 0.0
0.91 0.03 0.0
0.92 0.03 0.0
0.93 0.03 0.0
0.9400000000000001 0.03 0.0
0.9500000000000001 0.03 0.0
0.96 0.03 0.0
0.97 0.03 0.0
0.98 0.03 0.0
0.99 0.03 0.0
1.0 0.03 0.0
0.0 0.04 0.0
0.01 0.04 0.0
0.02 0.04 0.0
0.03 0.04 0.0
0.04 0.04 0.0
0.05 0.04 0.0
0.06 0.04 0.0
0.07 0.04 0.0
0.08 0.04 0.0
0.09 0.04 0.0
0.1 0.04 0.0
0.11 0.04 0.0
0.12 0.04 0.0
0.13 0.04 0.0
0.14 0.04 0.0
0.15 0.04 0.0
0.16 0.04 0.0
0.17 0.04 0.0
0.18 0.04 0.0
0.19 0.04 0.0
0.2 0.04 0.0
0.21 0.04 0.0
0.22 0.04 0.0
0.23 0.04 0.0
0.24 0.04 0.0
0.25 0.04 0.0
0.26 0.04 0.0
0.27 0.04 0.0
0.28 0.04 0.0
0.29 0.04 0.0
0.3 0.04 0.0
0.31 0.04 0.0
0.32 0.04 0.0
0.33 0.04 0.0
0.34 0.04 0.0
0.35000000000000003 0.04 0.0
0.36 0.04 0.0
0.37 0.04 0.0
0.38 0.04 0.0
0.39 0.04 0.0
0.4 0.04 0.0
0.41000000000000003 0.04 0.0
0.42 0.04 0.0
0.43 0.04 0.0
0.44 0.04 0.0
0.45 0.04 0.0
0.46 0.04 0.0
0.47000000000000003 0.04 0.0
0.48 0.04 0.0
0.49 0.04 0.0
0.5 0.04 0.0
0.51 0.04 0.0
0.52 0.04 0.0
0.53 0.04 0.0
0.54 0.04 0.0
0.55 0.04 0.0
0.56 0.04 0.0
0.5700000000000001 0.04 0.0
0.58 0.04 0.0
0.59 0.04 0.0
0.6 0.04 0.0
0.61 0.04 0.0
0.62 0.04 0.0
0.63 0.04 0.0
0.64 0.04 0.0
0.65 0.04 0.0
0.66 0.04 0.0
0.67 0.04 0.0
0.68 0.04 0.0
0.6900000000000001 0.04 0.0
0.7000000000000001 0.04 0.0
0.71 0.04 0.0
0.72 0.04 0.0
0.73 0.04 0.0
0.74 0.04 0.0
0.75 0.04 0.0
0.76 0.04 0.0
0.77 0.04 0.0
0.78 0.04 0.0
0.79 0.04 0.0
0.8 0.04 0.0
0.81 0.04 0.0
0.8200000000000001 0.04 0.0
0.8300000000000001 0.04 0.0
0.84 0.04 0.0
0.85 0.04 0.0
0.86 0.04 0.0
0.87 0.04 0.0
0.88 0.04 0.0
0.89 0.04 0.0
0.9 0.04 0.0
0.91 0.04 0.0
0.92 0.04 0.0
0.93 0.04 0.0
0.9400000000000001 0.04 0.0
0.9500000000000001 0.04 0.0
0.96 0.04 0.0
0.97 0.04 0.0
0.98 0.04 0.0
0.99 0.04 0.0
1.0 0.04 0.0
0.0 0.05 0.0
0.01 0.05 0.0
0.02 0.05 0.0
0.03 0.05 0.0
0.04 0.05 0.0
0.05 0.05 0.0
0.06 0.05 0.0
0.07 0.05 0.0
0.08 0.05 0.0
0.09 0.05 0.0
0.1 0.05 0.0
0.11 0.05 0.0
0.12 0.05 0.0
0.13 0.05 0.0
0.14 0.05 0.0
0.15 0.05 0.0
0.16 0.05 0.0
0.17 0.05 0.0
0.18 0.05 0.0
0.19 0.05 0.0
0.2 0.05 0.0
0.21 0.05 0.0
0.22 0.05 0.0
0.23 0.05 0.0
0.24 0.05 0.0
0.25 0.05 0.0
0.26 0.05 0.0
0.27 0.05 0.0
0.28 0.05 0.0
0.29 0.05 0.0
0.3 0.05 0.0
0.31 0.05 0.0
0.32 0.05 0.0
0.33 0.05 0.0
0.34 0.05 0.0
0.35000000000000003 0.05 0.0
0.36 0.05 0.0
0.37 0.05 0.0
0.38 0.05 0.0
0.39 0.05 0.0
0.4 0.05 0.0
0.41000000000000003 0.05 0.0
0.42 0.05 0.0
0.43 0.05 0.0
0.44 0.05 0.0
0.45 0.05 0.0
0.46 0.05 0.0
0.47000000000000003 0.05 0.0
0.48 0.05 0.0
0.49 0.05 0.0
0.5 0.05 0.0
0.51 0.05 0.0
0.52 0.05 0.0
0.53 0.05 0.0
0.54 0.05 0.0
0.55 0.05 0.0
0.56 0.05 0.0
0.5700000000000001 0.05 0.0
0.58 0.05 0.0
0.59 0.05 0.0
0.6 0.05 0.0
0.61 0.05 0.0
0.62 0.05 0.0
0.63 0.05 0.0
0.64 0.05 0.0
0.65 0.05 0.0
0.66 0.05 0.0
0.67 0.05 0.0
0.68 0.05 0.0
0.6900000000000001 0.05 0.0
0.7000000000000001 0.05 0.0
0.71 0.05 0.0
0.72 0.05 0.0
0.73 0.05 0.0
0.74 0.05 0.0
0.75 0.05 0.0
0.76 0.05 0.0
0.77 0.05 0.0
0.78 0.05 0.0
0.79 0.05 0.0
0.8 0.05 0.0
0.81 0.05 0.0
0.8200000000000001 0.05 0.0
0.8300000000000001 0.05 0.0
0.84 0.05 0.0
0.85 0.05 0.0
0.86 0.05 0.0
0.87 0.05 0.0
0.88 0.05 0.0
0.89 0.05 0.0
0.9 0.05 0.0
0.91 0.05 0.0
0.92 0.05 0.0
0.93 0.05 0.0
0.9400000000000001 0.05 0.0
0.9500000000000001 0.05 0.0
0.96 0.05 0.0
0.97 0.05 0.0
0.98 0.05 0.0
0.99 0.05 0.0
1.0 0.05 0.0
0.0 0.06 0.0
0.01 0.06 0.0
0.02 0.06 0.0
0.03 0.06 0.0
0.04 0.06 0.0
0.05 0.06 0.0
0.06 0.06 0.0
0.07 0.06 0.0
0.08 0.06 0.0
0.09 0.06 0.0
0.1 0.06 0.0
0.11 0.06 0.0
0.12 0.06 0.0
0.13 0.06 0.0
0.14 0.06 0.0
0.15 0.06 0.0
0.16 0.06 0.0
0.17 0.06 0.0
0.18 0.06 0.0
0.19 0.06 0.0
0.2 0.06 0.0
0.21 0.06 0.0
0.22 0.06 0.0
0.23 0.06 0.0
0.24 0.06 0.0
0.25 0.06 0.0
0.26 0.06 0.0
0.27 0.06 0.0
0.28 0.06 0.0
0.29 0.06 0.0
0.3 0.06 0.0
0.31 0.06 0.0
0.32 0.06 0.0
0.33 0.06 0.0
0.34 0.06 0.0
0.35000000000000003 0.06 0.0
0.36 0.06 0.0
0.37 0.06 0.0
0.38 0.06 0.0
0.39 0.06 0.0
0.4 0.06 0.0
0.41000000000000003 0.06 0.0
0.42 0.06 0.0
0.43 0.06 0.0
0.44 0.06 0.0
0.45 0.06 0.0
0.46 0.06 0.0
[...]
POINT_DATA  10201
FIELD  FlowField  4
Density    1 10201  double
1.7167616124485978
1.7397574428398288
1.7985447505977978
1.8793832196935507
1.9754657291146498
2.0800819067134326
2.18658136707877
2.2892507845528187
2.3839716468616414
2.468371282328059
2.541609500701355
2.603999461701342
2.6566071517003165
2.7008929213824038
2.7384141136412943
2.770611527928999
2.798650655910367
2.82332964192598
2.8450535336961007
2.8638280631469453
2.8792793005218416
2.890692770855862
2.897034044700897
2.896936385578493
2.888707819557029
2.8703322854195665
2.839455978179023
2.7934092718859143
2.7292795504731195
2.6440752125910794
2.535042359051387
2.4002147445395137
2.239271259611008
2.0547003194619124
1.8530798591683446
1.6459340738234634
1.449205802746412
1.2803478758317803
1.1530683995861937
1.0715620287944336
1.028453647128354
1.0097837072447071
1.003010006055976
1.000852385173796
1.0002251772477395
1.0000557746644176
1.0000129813008676
1.0000028432826331
1.0000005870020559
1.0000001144511685
1.0000000211239395
1.0000000037006604
1.0000000006172276
1.00000000009833
1.0000000000150124
1.000000000002203
1.0000000000003113
1.000000000000042
1.0000000000000049
1.0000000000000004
1.0
1.0
1.0
1.0
1.0
1.0
1.0
1.0
1.0
1.0
1.0
1.0
1.0
1.0
1.0
1.0
1.0
1.0
1.0
1.0
1.0
1.0
1.0
1.0
1.0
1.0
1.0
1.0
1.0
1.0
1.0
1.0
1.0
1.0
1.0
1.0
1.0
1.0
1.0
1.0
1.0
1.995882873469712
2.0159926770830747
2.068168068874315
2.140072146254636
2.223854616255834
2.31261787257106
2.4004421004556837
2.4827454585747866
2.556593792018437
2.6206402987557027
2.6748236735258346
2.7199827733051816
2.757490349910138
2.788944390970026
2.8159318305342227
2.8398806572867312
2.8619180078739443
2.88278224701992
2.902824922663588
2.9220159183641985
2.9399659087362067
2.955966198601475
2.96900970372074
2.9777977823425807
2.980747223004312
2.9759659403714354
2.961222527403535
2.933936456137459
2.8911932848390727
2.829812498137758
2.7465134111930825
2.638244253654385
2.502755395857543
2.339486605848122
2.150756344033015
1.943025156729145
1.727658903170441
1.5203256484248648
1.3382706645006568
1.1954872560601015
1.097880593641655
1.0414668235491646
1.014745832655191
1.0044963825972941
1.0012259216917707
1.0003083085542366
1.0000724509498542
1.0000159841226681
1.0000033186581194
1.0000006497825549
1.000000120259199
1.0000000210954014
1.0000000035180592
1.0000000005596394
1.0000000000852145
1.0000000000124634
1.0000000000017568
1.0000000000002391
1.000000000000031
1.0000000000000036
1.0000000000000004
1.0
1.0
1.0
1.0
1.0
1.0
1.0
1.0
1.0
1.0
1.0
1.0
1.0
1.0
1.0
1.0
1.0
1.0
1.0
1.0
1.0
1.0
1.0
1.0
1.0
1.0
1.0
1.0
1.0
1.0
1.0
1.0
1.0
1.0
1.0
1.0
1.0
1.0
1.0
1.0
2.5438904548588437
2.5532551934229515
2.581029191196188
2.6225116126305403
2.6697357718355823
2.7168263112719475
2.759991232526347
2.79695065533019
2.8267720448610527
2.849610942356976
2.8663916541191417
2.8784989120545745
2.887518424637015
2.895032689248
2.9024980093051043
2.9111993765475708
2.9221135269939933
2.9358221093459265
2.952558710548605
2.9722238265418763
2.994404175657788
3.0184019993606794
3.0432657607641613
3.0678406124207838
3.090769561162001
3.110435197458518
3.1249183618489162
3.131956470676245
3.1288933007478508
3.1126283303763644
3.0795826791707817
3.0257128692341304
2.946630906231147
2.8379303295446277
2.6958583741716176
2.518475585680151
2.307351276101745
2.0695401406387237
1.8189853072181992
1.575995850662293
1.3635938622896737
1.200475048103996
1.093629482098862
1.036040769522741
1.0113847459339818
1.0030581860314691
1.0007373974444713
1.0001647232732211
1.000034475019523
1.0000067892864524
1.000001261628356
1.0000002218402821
1.0000000370251476
1.0000000058854253
1.0000000008942322
1.0000000001303513
1.0000000000182958
1.0000000000024807
1.0000000000003255
1.000000000000041
1.0000000000000049
1.0000000000000004
1.0
1.0
1.0
1.0
1.0
1.0
1.0
1.0
1.0
1.0
1.0
1.0
1.0
1.0
1.0
1.0
1.0
1.0
1.0
1.0
1.0
1.0
1.0
1.0
1.0
1.0
1.0
1.0
1.0
1.0
1.0
1.0
1.0
1.0
1.0
1.0
1.0
1.0
1.0
3.0227492217521297
3.0147165669904306
3.0032352627459726
2.998093872699882
2.9942857599457136
2.9888746095048924
2.9807973096376488
2.969746822313514
2.9559719394533817
2.940168700574339
2.92335494548023
2.906732250382179
2.891554766015405
2.8790154837751003
2.8702142972828826
2.8661617450047974
2.8676104680853904
2.8749679328832736
2.88836648990871
2.9076679188163927
2.9324651217679034
2.9620836485868427
2.9956302120228573
3.032084985557349
3.0702933955546716
3.108900241394169
3.1463216640453178
3.180711657297693
3.2099129125871495
3.2313915802715663
3.242157238500734
3.2386730769010708
3.216770842233055
3.171603867821152
3.097709519039122
2.989316697267988
2.84111335345956
2.6497277094485634
2.416065218074009
2.148259911709273
1.8639651668750186
1.589675709632417
1.3550974329756975
1.1825956907822306
1.0773238859104106
1.0262114891025576
1.0071719341255916
1.0016792863438364
1.0003574106849804
1.000070950197368
1.0000132472941439
1.0000023357608996
1.0000003902266323
1.0000000619897627
1.0000000093985368
1.0000000013652488
1.0000000001907394
1.0000000000257245
1.0000000000033604
1.0000000000004263
1.0000000000000524
1.0000000000000062
1.0000000000000007
1.0
1.0
1.0
1.0
1.0
1.0
1.0
1.0
1.0
1.0
1.0
1.0
1.0
1.0
1.0
1.0
1.0
1.0
1.0
1.0
1.0
1.0
1.0
1.0
1.0
1.0
1.0
1.0
1.0
1.0
1.0
1.0
1.0
1.0
1.0
1.0
1.0
1.0
3.37140778641262
3.3447613607773485
3.29154015809063
3.238006365373569
3.1833494249217402
3.1279375464235972
3.0730911256643414
3.0198214633296265
2.968875713508664
2.9209203785421702
2.8766509032068135
2.8368126504143696
2.802168605132745
2.7734483084285273
2.7513743364488925
2.7366769894673597
2.7299036535619075
2.73133816111401
2.7410699053388434
2.758980372426767
2.7847198662127326
2.8176797656301313
2.857040017825528
2.901884922744081
2.9512051446111482
3.0038350627035633
3.05843381976653
3.113466490597416
3.1671723190527565
3.2175184962590615
3.262137911661216
3.298247387105232
3.3225423924790762
3.3310670565495424
3.3190711000245194
3.2808920182316688
3.209951506177442
3.0990524551366647
2.9412997522453965
2.7320576719656327
2.4722013783695242
2.172315322103341
1.8558017891130274
1.5571981832674036
1.312874445741129
1.1456645976922257
1.05395876749493
1.0155528063450436
1.0036176946923776
1.0007377107637936
1.0001389644714391
1.0000245925098719
1.0000041137311992
1.0000006531007097
1.000000098798748
1.0000000142989833
1.0000000019879223
1.0000000002665237
1.0000000000345866
1.0000000000043585
1.0000000000005347
1.0000000000000637
1.0000000000000073
1.0000000000000007
1.0
1.0
1.0
1.0
1.0
1.0
1.0
1.0
1.0
1.0
1.0
1.0
1.0
1.0
1.0
1.0
1.0
1.0
1.0
1.0
1.0
1.0
1.0
1.0
1.0
1.0
1.0
1.0
1.0
1.0
1.0
1.0
1.0
1.0
1.0
1.0
1.0
3.585851388277498
3.54212563831898
3.4509084170820468
3.3542595981105645
3.2554629810999085
3.1575822248361045
3.0637293111778443
2.975774022283721
2.894650690830402
2.8208119528097066
2.7545383036440176
2.6960890209759563
2.6457486992160546
2.6038265601694484
2.5707004859623446
2.546828627229392
2.532584296321406
2.5281790914290982
2.5337070209076025
2.549117928705249
2.574171175077228
2.608387034625408
2.6510591821122484
2.7013617759661566
2.758394764777639
2.821137917604391
2.8884266857263996
2.9589407273809663
3.031183759669708
3.1034538380994543
3.173805115335354
3.2399989092031136
3.2994372738238638
3.3490679861669768
3.385250003622371
3.4035739067754274
3.398647575676185
3.3638946766736684
3.291485798590965
3.1726652498992673
2.9989622209128903
2.7649169253886328
2.4726834615865645
2.137781944475433
1.7924662292565494
1.4810857661756391
1.2443734611472335
1.099113461092201
1.0307612554394598
1.0073120724298432
1.0014441468792978
1.0002585445501204
1.0000433666643507
1.0000068826108193
1.0000010387997782
1.0000001497613002
1.000000020712068
1.0000000027593956
1.0000000003555276
1.0000000000444584
1.0000000000054126
1.0000000000006428
1.0000000000000744
1.0000000000000082
1.0000000000000007
1.0
1.0
1.0
1.0
1.0
1.0
1.0
1.0
1.0
1.0
1.0
1.0
1.0
1.0
1.0
1.0
1.0
1.0
1.0
1.0
1.0
1.0
1.0
1.0
1.0
1.0
1.0
1.0
1.0
1.0
1.0
1.0
1.0
1.0
1.0
1.0
3.689524146677127
3.6306271097345286
3.5059179440396693
3.3722330055351475
3.23662729458954
3.1039336456335165
2.978423348259021
2.862492289881642
2.7571253464695746
2.662533490812514
2.5786080912325287
2.505172179265851
2.4420910327698353
2.389312875679842
2.346902509448942
2.3150398889896504
2.293928273256273
2.283728019897278
2.2845528711017558
2.296439501203899
2.3192891977034
2.3528058435966024
2.39646053391583
2.449541921356463
2.5112469607197205
2.5806911521873146
2.656874427254628
2.7386632658775087
2.82477076266926
2.9137296271271884
3.00386332797839
3.093258301980262
3.1797340370503138
3.260800786086665
3.3335898263641877
3.394738928190941
3.440216477444652
3.4650749036559656
3.4631450778452155
3.426736118921492
3.3465161794189466
3.2119725125829195
3.013196242465915
2.744901756509112
2.4130217910727763
2.0420620933916465
1.6769267487099504
1.3715605177770123
1.1639953437767654
1.0551940921218004
1.013736470795838
1.0026713933811053
1.00045601029053
1.0000725247837794
1.000010924316555
1.0000015685659844
1.0000002157302499
1.0000000285474304
1.0000000036500214
1.0000000004526504
1.000000000054633
1.0000000000064366
1.0000000000007412
1.000000000000083
1.0000000000000087
1.0000000000000007
1.0
1.0
1.0
1.0
1.0
1.0
1.0
1.0
1.0
1.0
1.0
1.0
1.0
1.0
1.0
1.0
1.0
1.0
1.0
1.0
1.0
1.0
1.0
1.0
1.0
1.0
1.0
1.0
1.0
1.0
1.0
1.0
1.0
1.0
1.0
3.7119435717675313
3.6391113215625843
3.483749423607571
3.317107917649462
3.1501152797332135
2.9885758217284346
2.837293392424678
2.698844965331743
2.5741177301473477
2.4630477623952425
2.3651599639378658
2.2798853221973516
2.2067169306159364
2.145277008694664
2.095337599514827
2.0568037648555997
2.029681492140836
2.0140471306860084
2.0100116108167727
2.017677575253144
2.0370830838784264
2.06813420707433
2.110538121699229
2.16377394476857
2.227158848058025
2.299939768893741
2.381299983687482
2.4703216341776737
2.565952286591479
2.666966159781098
2.7719258222333827
2.8791538151205405
2.986717057396847
3.0924184636178333
3.1937827930124527
3.2880194480878755
3.371941925363451
3.441820469610801
3.4931444808240073
3.5202811152221916
3.5160495875783977
3.4713125166807677
3.374862822036898
3.214252655765957
2.9787036701906606
2.6652756995771107
2.2881606497807074
1.886543265528514
1.52060681926113
1.247831203312412
1.0901759293180586
1.0238252396459695
1.0046495664888933
1.0007608552397185
1.0001148400565751
1.0000164282715385
1.0000022462382803
1.0000002951010003
1.000000037421846
1.000000004599539
1.0000000005499592
1.000000000064174
1.0000000000073275
1.0000000000008202
1.0000000000000895
1.0000000000000089
1.0000000000000007
1.0
1.0
1.0
1.0
1.0
1.0
1.0
1.0
1.0
1.0
1.0
1.0
1.0
1.0
1.0
1.0
1.0
1.0
1.0
1.0
1.0
1.0
1.0
1.0
1.0
1.0
1.0
1.0
1.0
1.0
1.0
1.0
1.0
1.0
3.6788474778985925
3.592494423886555
3.407390624615756
3.2095623262203095
3.0143957723298325
2.828201017756696
2.655713951503771
2.4992933366964585
2.359496139632037
2.2358756211171595
2.1275583071464306
2.033588727327336
1.9531047239354755
1.8854114049821225
1.8299941332458312
1.7864999918270263
1.7547212229296565
1.734584509406739
1.7261247723245583
1.7294484611039123
1.744682009718439
1.77190241015652
1.8110620754364493
1.8619137037463087
1.9239869379870114
1.996671245220296
2.0793275868866052
2.1712952017966827
2.271824580921437
2.3800103926633733
2.494727426318087
2.614580088932955
2.7378754863217694
2.862621074049037
2.986537690586074
3.107073681318239
3.221403567790235
3.3263893382371283
3.4184758724897204
3.4934875595321153
3.546294901739487
3.570337717365147
3.557046806881921
3.4953423992864456
3.37169425386963
3.171831325915403
2.885774652262509
2.5173642087962436
2.096236241008545
1.682058600205663
1.3468147227553273
1.1354119522629333
1.0380980410458283
1.007582588755413
1.001198298263573
1.0001719017911817
1.0000233778991108
1.0000030478443045
1.000000383093972
1.0000000466363443
1.000000005520386
1.000000000637564
1.0000000000720535
1.000000000007988
1.00000000000087
1.0000000000000924
1.000000000000009
1.0000000000000007
1.0
1.0
1.0
1.0
1.0
1.0
1.0
1.0
1.0
1.0
1.0
1.0
1.0
1.0
1.0
1.0
1.0
1.0
1.0
1.0
1.0
1.0
1.0
1.0
1.0
1.0
1.0
1.0
1.0
1.0
1.0
1.0
1.0
3.6094303197339315
3.509326445003884
3.2940221584429303
3.065254321542162
2.8436849701204436
2.6359326713730384
2.4460923188588026
2.275855543214661
2.1251428380534305
1.9929448909109648
1.8779024293344189
1.7786404787573313
1.6939328446503652
1.6227641837072004
1.5643345536127162
1.5180421752527542
1.4834647416860984
1.4603405388320951
1.4485522567243345
1.4481118845345775
1.4591323040581616
1.4817818747424993
1.5162121930438472
1.5624670869458526
1.6204002940731221
1.6896514571115786
1.7697446291367693
1.8602358639370964
1.9607188183363284
2.070704691188826
2.1895072559980306
2.3161494071091218
2.44929970538221
2.5872492809282273
2.727922788237876
2.868909069108259
3.007501668200816
3.1407346934538865
3.265390367678453
3.3779457592653035
3.4744185325522334
3.5500679668420023
3.5989147148066434
3.613076602577932
3.5820181391639845
3.4920564872161908
3.327032635006475
3.071940900816313
2.721663461230974
2.2949487401135644
1.8459083402717829
1.4550344230488303
1.1889080287499767
1.0563592081451088
1.01155114798895
1.001777566622203
1.0002428674649955
1.000031443537136
1.000003915265518
1.0000004717217001
1.000000055236588
1.000000006309335
1.000000000705182
1.0000000000773226
1.0000000000083358
1.0000000000008846
1.000000000000092
1.0000000000000089
1.0000000000000007
1.0
1.0
1.0
1.0
1.0
1.0
1.0
1.0
1.0
1.0
1.0
1.0
1.0
1.0
1.0
1.0
1.0
1.0
1.0
1.0
1.0
1.0
1.0
1.0
1.0
1.0
1.0
1.0
1.0
1.0
1.0
1.0
3.516596718874356
3.4020937476606155
3.155424607841305
2.895477913540258
2.648933830460908
2.422524915250422
2.2191433585582283
2.0393259339763117
1.8820202816245628
1.7454440926435648
1.6276401383691164
1.52676523655833
1.441214193108427
1.3696520016508782
1.3110016316851638
1.2644178028328183
1.2292594645066015
1.2050648289876051
1.1915326270125743
1.1885109062649502
1.1959928609704278
1.2141090946322952
1.243094851038916
1.2832178811630381
1.3346737965877444
1.3974842252729145
1.4714652341566503
1.5563474951717158
1.6519694511676586
1.7582746895643215
1.8751168361238921
2.002083982649906
2.138384171101082
2.282779434497929
2.4335652646088843
2.588581948414011
2.7452555219465773
2.900663953388336
3.0516107690264946
3.19468166651773
3.326248023315807
3.4423707536318338
3.5385513589615853
3.6092767136438852
3.647323373044761
3.642855946900901
3.5825491785556793
3.4494471483783418
3.2252530695937547
2.8977542041043858
2.4752305956378975
2.0033520450732656
1.5657254637947944
1.2473164218732706
1.0776285893941935
1.0164231246007387
1.0024789278455615
1.000323388419944
1.000039931438221
1.0000047583981004
1.000000550716644
1.000000062162254
1.0000000068659163
1.0000000007440963
1.000000000079305
1.0000000000083278
1.0000000000008624
1.0000000000000875
1.0000000000000084
1.0000000000000007
1.0
1.0
1.0
1.0
1.0
1.0
1.0
1.0
1.0
1.0
1.0
1.0
1.0
1.0
1.0
1.0
1.0
1.0
1.0
1.0
1.0
1.0
1.0
1.0
1.0
1.0
1.0
1.0
1.0
1.0
1.0
3.408226858776802
3.278456316547601
2.9991379520176826
2.708189555733405
2.438728695904553
2.1971368163343468
1.9844772021421344
1.7996386971247889
1.6402837857949315
1.5036787400296443
1.3871817485151572
1.288450072235774
1.2054980791979724
1.1366845803477448
1.0806734556994249
1.036389955687765
1.0029814009779632
0.9797863322844544
0.9663140730844286
0.9622343537526399
0.9673755949905338
0.9817308065110493
1.0054681088864503
1.0389198000842055
1.0825177821563752
1.136664704250666
1.2016060109639992
1.2773958927902755
1.3640479025805408
1.4617603212307175
1.5708944294342466
1.6917027819030237
1.8240878546643307
1.9674771510409954
2.1207591152163383
2.2822596632366645
2.449748547937727
2.6204825458759236
2.7912865381939174
2.9586634822150826
3.1189042149705095
3.2681519157039554
3.4023699876266646
3.5171520972152
3.6073087624191773
3.6661722000243766
3.684608632529829
3.649876839580615
3.5448791666461865
3.3493162828878242
3.045651670866106
2.633029856988893
2.1476756162214765
1.6723884298630423
1.3065485357113245
1.1002749790732198
1.0218197887912064
1.0032452970392591
1.0004053023199537
1.0000478371506656
1.0000054682580397
1.0000006093870681
1.000000066458118
1.0000000071133077
1.0000000007489975
1.0000000000777338
1.0000000000079636
1.0000000000008058
1.0000000000000802
1.0000000000000078
1.0000000000000007
1.0
1.0
1.0
1.0
1.0
1.0
1.0
1.0
1.0
1.0
1.0
1.0
1.0
1.0
1.0
1.0
1.0
1.0
1.0
1.0
1.0
1.0
1.0
1.0
1.0
1.0
1.0
1.0
1.0
1.0
3.288557311213009
3.142627063277099
2.829793011162443
2.5091236756076247
2.2200510944819705
1.9677083971011338
1.750608163569841
1.565578887168875
1.4087709743379881
1.2763972062461055
1.1650981265447622
1.0720340534959543
0.9948592544849166
0.9316550001042838
0.8808569245981066
0.8411908051448675
0.8116211432279773
0.7913136868643946
0.7796112660190193
0.7760213234181876
0.7802133790480669
0.7920255123337334
0.8114801054884575
0.8388088426927891
0.8744647532365218
0.9190656148448331
0.9732408849958665
1.0374865772369817
1.1121481522563097
1.1975857714726028
1.294405744628005
1.4034286586068037
1.5253362555685372
1.6603652658844872
1.808193976232104
1.9678834179601834
2.1378324939901616
2.315763916521088
2.4987655578592287
2.6833895575729754
2.865794491733632
3.041902336517493
3.20752717766589
3.358412860912395
3.4901079756289572
3.597602704226438
3.6746527968651073
3.712745116616081
3.699773107952485
3.618836027814494
3.4484824940782834
3.1672999853140897
2.7669061746250967
2.2743943228998966
1.769503887670908
1.3624078178827652
1.1222838142676452
1.0271632869604428
1.0039847941288471
1.0004775996237985
1.0000540219839011
1.0000059394657481
1.000000638978603
1.0000000674902387
1.0000000070157264
1.000000000719165
1.000000000072811
1.00000000000729
1.000000000000722
1.0000000000000706
1.0000000000000067
1.0000000000000004
1.0
1.0
1.0
1.0
1.0
1.0
1.0
1.0
1.0
1.0
1.0
1.0
1.0
1.0
1.0
1.0
1.0
1.0
1.0
1.0
1.0
1.0
1.0
1.0
1.0
1.0
1.0
1.0
1.0
3.159396881088985
2.996595239597108
2.6502715525651515
2.3027219271572066
1.9988111800921435
1.7410923331304773
1.524807728750033
1.344452926550825
1.1945614200616905
1.070285187148609
0.9675767848533601
0.8831412013756605
0.8143173861564333
0.7589548474389863
0.7153079180477273
0.681952334427963
0.6577224092585485
0.6416657975257644
0.6330129674644621
0.6311588235182692
0.6356545147966265
0.6462088862757307
0.6627007245889427
0.6852032918614728
0.7140208650640935
0.7497242497288038
0.7931027402124642
0.8449857009552837
0.9061097888493008
0.9771456133109326
1.0588361091530292
1.1522221132618289
1.2585945146075492
1.3790495008710633
1.5141700451551734
1.6639366473767465
1.8276402185830856
2.003798405296969
2.190121013170725
2.3835439094706685
2.5803382868116054
2.776286495058012
2.966890743911666
3.147562710660922
3.3137298034690224
3.460779401144898
3.583751537544609
3.676690704629285
3.7315863159893197
3.7369150184150266
3.6760991913395267
3.5270351996460656
3.2655015377155463
2.8771157906482214
2.38092055103359
1.8528229674977863
1.4110880232301073
1.141572756102041
1.0317862166752905
1.0045873193902704
1.0005287291766465
1.0000574797068214
1.0000060960251012
1.0000006348296757
1.0000000650999603
1.0000000065869252
1.000000000658643
1.0000000000651694
1.0000000000063876
1.0000000000006206
1.0000000000000595
1.0000000000000053
1.0000000000000004
1.0
1.0
1.0
1.0
1.0
1.0
1.0
1.0
1.0
1.0
1.0
1.0
1.0
1.0
1.0
1.0
1.0
1.0
1.0
1.0
1.0
1.0
1.0
1.0
1.0
1.0
1.0
1.0
3.02110184141515
2.8411206011118675
2.4626670337589553
2.092911589434811
1.7803101266336523
1.5232115216473159
1.3130665173035756
1.1419300719410692
1.0027558428598604
0.8897283261148268
0.79820517467099
0.7245145073715147
0.6657463838314881
0.6195799061785948
0.5841509081196137
0.5579532239072769
0.5397647762001965
0.5285920765725736
0.5236293969427727
0.524230211927708
0.5298892652331519
0.5402352767781146
0.5550364208788978
0.5742210404117475
0.597913571895575
0.6264825880078868
0.6605902640260459
0.7011416570510418
0.7490919627069064
0.8053993669696888
0.8710686548974903
0.9472168973144136
1.0353285980245748
1.1371406463298697
1.254125034222079