# vtk DataFile Version 3.0 
shock_diffraction_time_series_399_.vtk
ASCII
DATASET UNSTRUCTURED_GRID
POINTS         10201 double
0.0 0.0 0.0
0.01 0.0 0.0
0.02 0.0 0.0
0.03 0.0 0.0
0.04 0.0 0.0
0.05 0.0 0.0
0.06 0.0 0.0
0.07 0.0 0.0
0.08 0.0 0.0
0.09 0.0 0.0
0.1 0.0 0.0
0.11 0.0 0.0
0.12 0.0 0.0
0.13 0.0 0.0
0.14 0.0 0.0
0.15 0.0 0.0
0.16 0.0 0.0
0.17 0.0 0.0
0.18 0.0 0.0
0.19 0.0 0.0
0.2 0.0 0.0
0.21 0.0 0.0
0.22 0.0 0.0
0.23 0.0 0.0
0.24 0.0 0.0
0.25 0.0 0.0
0.26 0.0 0.0
0.27 0.0 0.0
0.28 0.0 0.0
0.29 0.0 0.0
0.3 0.0 0.0
0.31 0.0 0.0
0.32 0.0 0.0
0.33 0.0 0.0
0.34 0.0 0.0
0.35000000000000003 0.0 0.0
0.36 0.0 0.0
0.37 0.0 0.0
0.38 0.0 0.0
0.39 0.0 0.0
0.4 0.0 0.0
0.41000000000000003 0.0 0.0
0.42 0.0 0.0
0.43 0.0 0.0
0.44 0.0 0.0
0.45 0.0 0.0
0.46 0.0 0.0
0.47000000000000003 0.0 0.0
0.48 0.0 0.0
0.49 0.0 0.0
0.5 0.0 0.0
0.51 0.0 0.0
0.52 0.0 0.0
0.53 0.0 0.0
0.54 0.0 0.0
0.55 0.0 0.0
0.56 0.0 0.0
0.5700000000000001 0.0 0.0
0.58 0.0 0.0
0.59 0.0 0.0
0.6 0.0 0.0
0.61 0.0 0.0
0.62 0.0 0.0
0.63 0.0 0.0
0.64 0.0 0.0
0.65 0.0 0.0
0.66 0.0 0.0
0.67 0.0 0.0
0.68 0.0 0.0
0.6900000000000001 0.0 0.0
0.7000000000000001 0.0 0.0
0.71 0.0 0.0
0.72 0.0 0.0
0.73 0.0 0.0
0.74 0.0 0.0
0.75 0.0 0.0
0.76 0.0 0.0
0.77 0.0 0.0
0.78 0.0 0.0
0.79 0.0 0.0
0.8 0.0 0.0
0.81 0.0 0.0
0.8200000000000001 0.0 0.0
0.8300000000000001 0.0 0.0
0.84 0.0 0.0
0.85 0.0 0.0
0.86 0.0 0.0
0.87 0.0 0.0
0.88 0.0 0.0
0.89 0.0 0.0
0.9 0.0 0.0
0.91 0.0 0.0
0.92 0.0 0.0
0.93 0.0 0.0
0.9400000000000001 0.0 0.0
0.9500000000000001 0.0 0.0
0.96 0.0 0.0
0.97 0.0 0.0
0.98 0.0 0.0
0.99 0.0 0.0
1.0 0.0 0.0
0.0 0.01 0.0
0.01 0.01 0.0
0.02 0.01 0.0
0.03 0.01 0.0
0.04 0.01 0.0
0.05 0.01 0.0
0.06 0.01 0.0
0.07 0.01 0.0
0.08 0.01 0.0
0.09 0.01 0.0
0.1 0.01 0.0
0.11 0.01 0.0
0.12 0.01 0.0
0.13 0.01 0.0
0.14 0.01 0.0
0.15 0.01 0.0
0.16 0.01 0.0
0.17 0.01 0.0
0.18 0.01 0.0
0.19 0.01 0.0
0.2 0.01 0.0
0.21 0.01 0.0
0.22 0.01 0.0
0.23 0.01 0.0
0.24 0.01 0.0
0.25 0.01 0.0
0.26 0.01 0.0
0.27 0.01 0.0
0.28 0.01 0.0
0.29 0.01 0.0
0.3 0.01 0.0
0.31 0.01 0.0
0.32 0.01 0.0
0.33 0.01 0.0
0.34 0.01 0.0
0.35000000000000003 0.01 0.0
0.36 0.01 0.0
0.37 0.01 0.0
0.38 0.01 0.0
0.39 0.01 0.0
0.4 0.01 0.0
0.41000000000000003 0.01 0.0
0.42 0.01 0.0
0.43 0.01 0.0
0.44 0.01 0.0
0.45 0.01 0.0
0.46 0.01 0.0
0.47000000000000003 0.01 0.0
0.48 0.01 0.0
0.49 0.01 0.0
0.5 0.01 0.0
0.51 0.01 0.0
0.52 0.01 0.0
0.53 0.01 0.0
0.54 0.01 0.0
0.55 0.01 0.0
0.56 0.01 0.0
0.5700000000000001 0.01 0.0
0.58 0.01 0.0
0.59 0.01 0.0
0.6 0.01 0.0
0.61 0.01 0.0
0.62 0.01 0.0
0.63 0.01 0.0
0.64 0.01 0.0
0.65 0.01 0.0
0.66 0.01 0.0
0.67 0.01 0.0
0.68 0.01 0.0
0.6900000000000001 0.01 0.0
0.7000000000000001 0.01 0.0
0.71 0.01 0.0
0.72 0.01 0.0
0.73 0.01 0.0
0.74 0.01 0.0
0.75 0.01 0.0
0.76 0.01 0.0
0.77 0.01 0.0
0.78 0.01 0.0
0.79 0.01 0.0
0.8 0.01 0.0
0.81 0.01 0.0
0.8200000000000001 0.01 0.0
0.8300000000000001 0.01 0.0
0.84 0.01 0.0
0.85 0.01 0.0
0.86 0.01 0.0
0.87 0.01 0.0
0.88 0.01 0.0
0.89 0.01 0.0
0.9 0.01 0.0
0.91 0.01 0.0
0.92 0.01 0.0
0.93 0.01 0.0
0.9400000000000001 0.01 0.0
0.9500000000000001 0.01 0.0
0.96 0.01 0.0
0.97 0.01 0.0
0.98 0.01 0.0
0.99 0.01 0.0
1.0 0.01 0.0
0.0 0.02 0.0
0.01 0.02 0.0
0.02 0.02 0.0
0.03 0.02 0.0
0.04 0.02 0.0
0.05 0.02 0.0
0.06 0.02 0.0
0.07 0.02 0.0
0.08 0.02 0.0
0.09 0.02 0.0
0.1 0.02 0.0
0.11 0.02 0.0
0.12 0.02 0.0
0.13 0.02 0.0
0.14 0.02 0.0
0.15 0.02 0.0
0.16 0.02 0.0
0.17 0.02 0.0
0.18 0.02 0.0
0.19 0.02 0.0
0.2 0.02 0.0
0.21 0.02 0.0
0.22 0.02 0.0
0.23 0.02 0.0
0.24 0.02 0.0
0.25 0.02 0.0
0.26 0.02 0.0
0.27 0.02 0.0
0.28 0.02 0.0
0.29 0.02 0.0
0.3 0.02 0.0
0.31 0.02 0.0
0.32 0.02 0.0
0.33 0.02 0.0
0.34 0.02 0.0
0.35000000000000003 0.02 0.0
0.36 0.02 0.0
0.37 0.02 0.0
0.38 0.02 0.0
0.39 0.02 0.0
0.4 0.02 0.0
0.41000000000000003 0.02 0.0
0.42 0.02 0.0
0.43 0.02 0.0
0.44 0.02 0.0
0.45 0.02 0.0
0.46 0.02 0.0
0.47000000000000003 0.02 0.0
0.48 0.02 0.0
0.49 0.02 0.0
0.5 0.02 0.0
0.51 0.02 0.0
0.52 0.02 0.0
0.53 0.02 0.0
0.54 0.02 0.0
0.55 0.02 0.0
0.56 0.02 0.0
0.5700000000000001 0.02 0.0
0.58 0.02 0.0
0.59 0.02 0.0
0.6 0.02 0.0
0.61 0.02 0.0
0.62 0.02 0.0
0.63 0.02 0.0
0.64 0.02 0.0
0.65 0.02 0.0
0.66 0.02 0.0
0.67 0.02 0.0
0.68 0.02 0.0
0.6900000000000001 0.02 0.0
0.7000000000000001 0.02 0.0
0.71 0.02 0.0
0.72 0.02 0.0
0.73 0.02 0.0
0.74 0.02 0.0
0.75 0.02 0.0
0.76 0.02 0.0
0.77 0.02 0.0
0.78 0.02 0.0
0.79 0.02 0.0
0.8 0.02 0.0
0.81 0.02 0.0
0.8200000000000001 0.02 0.0
0.8300000000000001 0.02 0.0
0.84 0.02 0.0
0.85 0.02 0.0
0.86 0.02 0.0
0.87 0.02 0.0
0.88 0.02 0.0
0.89 0.02 0.0
0.9 0.02 0.0
0.91 0.02 0.0
0.92 0.02 0.0
0.93 0.02 0.0
0.9400000000000001 0.02 0.0
0.9500000000000001 0.02 0.0
0.96 0.02 0.0
0.97 0.02 0.0
0.98 0.02 0.0
0.99 0.02 0.0
1.0 0.02 0.0
0.0 0.03 0.0
0.01 0.03 0.0
0.02 0.03 0.0
0.03 0.03 0.0
0.04 0.03 0.0
0.05 0.03 0.0
0.06 0.03 0.0
0.07 0.03 0.0
0.08 0.03 0.0
0.09 0.03 0.0
0.1 0.03 0.0
0.11 0.03 0.0
0.12 0.03 0.0
0.13 0.03 0.0
0.14 0.03 0.0
0.15 0.03 0.0
0.16 0.03 0.0
0.17 0.03 0.0
0.18 0.03 0.0
0.19 0.03 0.0
0.2 0.03 0.0
0.21 0.03 0.0
0.22 0.03 0.0
0.23 0.03 0.0
0.24 0.03 0.0
0.25 0.03 0.0
0.26 0.03 0.0
0.27 0.03 0.0
0.28 0.03 0.0
0.29 0.03 0.0
0.3 0.03 0.0
0.31 0.03 0.0
0.32 0.03 0.0
0.33 0.03 0.0
0.34 0.03 0.0
0.35000000000000003 0.03 0.0
0.36 0.03 0.0
0.37 0.03 0.0
0.38 0.03 0.0
0.39 0.03 0.0
0.4 0.03 0.0
0.41000000000000003 0.03 0.0
0.42 0.03 0.0
0.43 0.03 0.0
0.44 0.03 0.0
0.45 0.03 0.0
0.46 0.03 0.0
0.47000000000000003 0.03 0.0
0.48 0.03 0.0
0.49 0.03 0.0
0.5 0.03 0.0
0.51 0.03 0.0
0.52 0.03 0.0
0.53 0.03 0.0
0.54 0.03 0.0
0.55 0.03 0.0
0.56 0.03 0.0
0.5700000000000001 0.03 0.0
0.58 0.03 0.0
0.59 0.03 0.0
0.6 0.03 0.0
0.61 0.03 0.0
0.62 0.03 0.0
0.63 0.03 0.0
0.64 0.03 0.0
0.65 0.03 0.0
0.66 0.03 0.0
0.67 0.03 0.0
0.68 0.03 0.0
0.6900000000000001 0.03 0.0
0.7000000000000001 0.03 0.0
0.71 0.03 0.0
0.72 0.03 0.0
0.73 0.03 0.0
0.74 0.03 0.0
0.75 0.03 0.0
0.76 0.03 0.0
0.77 0.03 0.0
0.78 0.03 0.0
0.79 0.03 0.0
0.8 0.03 0.0
0.81 0.03 0.0
0.8200000000000001 0.03 0.0
0.8300000000000001 0.03 0.0
0.84 0.03 0.0
0.85 0.03 0.0
0.86 0.03 0.0
0.87 0.03 0.0
0.88 0.03 0.0
0.89 0.03 0.0
0.9 0.03 0.0
0.91 0.03 0.0
0.92 0.03 0.0
0.93 0.03 0.0
0.9400000000000001 0.03 0.0
0.9500000000000001 0.03 0.0
0.96 0.03 0.0
0.97 0.03 0.0
0.98 0.03 0.0
0.99 0.03 0.0
1.0 0.03 0.0
0.0 0.04 0.0
0.01 0.04 0.0
0.02 0.04 0.0
0.03 0.04 0.0
0.04 0.04 0.0
0.05 0.04 0.0
0.06 0.04 0.0
0.07 0.04 0.0
0.08 0.04 0.0
0.09 0.04 0.0
0.1 0.04 0.0
0.11 0.04 0.0
0.12 0.04 0.0
0.13 0.04 0.0
0.14 0.04 0.0
0.15 0.04 0.0
0.16 0.04 0.0
0.17 0.04 0.0
0.18 0.04 0.0
0.19 0.04 0.0
0.2 0.04 0.0
0.21 0.04 0.0
0.22 0.04 0.0
0.23 0.04 0.0
0.24 0.04 0.0
0.25 0.04 0.0
0.26 0.04 0.0
0.27 0.04 0.0
0.28 0.04 0.0
0.29 0.04 0.0
0.3 0.04 0.0
0.31 0.04 0.0
0.32 0.04 0.0
0.33 0.04 0.0
0.34 0.04 0.0
0.35000000000000003 0.04 0.0
0.36 0.04 0.0
0.37 0.04 0.0
0.38 0.04 0.0
0.39 0.04 0.0
0.4 0.04 0.0
0.41000000000000003 0.04 0.0
0.42 0.04 0.0
0.43 0.04 0.0
0.44 0.04 0.0
0.45 0.04 0.0
0.46 0.04 0.0
0.47000000000000003 0.04 0.0
0.48 0.04 0.0
0.49 0.04 0.0
0.5 0.04 0.0
0.51 0.04 0.0
0.52 0.04 0.0
0.53 0.04 0.0
0.54 0.04 0.0
0.55 0.04 0.0
0.56 0.04 0.0
0.5700000000000001 0.04 0.0
0.58 0.04 0.0
0.59 0.04 0.0
0.6 0.04 0.0
0.61 0.04 0.0
0.62 0.04 0.0
0.63 0.04 0.0
0.64 0.04 0.0
0.65 0.04 0.0
0.66 0.04 0.0
0.67 0.04 0.0
0.68 0.04 0.0
0.6900000000000001 0.04 0.0
0.7000000000000001 0.04 0.0
0.71 0.04 0.0
0.72 0.04 0.0
0.73 0.04 0.0
0.74 0.04 0.0
0.75 0.04 0.0
0.76 0.04 0.0
0.77 0.04 0.0
0.78 0.04 0.0
0.79 0.04 0.0
0.8 0.04 0.0
0.81 0.04 0.0
0.8200000000000001 0.04 0.0
0.8300000000000001 0.04 0.0
0.84 0.04 0.0
0.85 0.04 0.0
0.86 0.04 0.0
0.87 0.04 0.0
0.88 0.04 0.0
0.89 0.04 0.0
0.9 0.04 0.0
0.91 0.04 0.0
0.92 0.04 0.0
0.93 0.04 0.0
0.9400000000000001 0.04 0.0
0.9500000000000001 0.04 0.0
0.96 0.04 0.0
0.97 0.04 0.0
0.98 0.04 0.0
0.99 0.04 0.0
1.0 0.04 0.0
0.0 0.05 0.0
0.01 0.05 0.0
0.02 0.05 0.0
0.03 0.05 0.0
0.04 0.05 0.0
0.05 0.05 0.0
0.06 0.05 0.0
0.07 0.05 0.0
0.08 0.05 0.0
0.09 0.05 0.0
0.1 0.05 0.0
0.11 0.05 0.0
0.12 0.05 0.0
0.13 0.05 0.0
0.14 0.05 0.0
0.15 0.05 0.0
0.16 0.05 0.0
0.17 0.05 0.0
0.18 0.05 0.0
0.19 0.05 0.0
0.2 0.05 0.0
0.21 0.05 0.0
0.22 0.05 0.0
0.23 0.05 0.0
0.24 0.05 0.0
0.25 0.05 0.0
0.26 0.05 0.0
0.27 0.05 0.0
0.28 0.05 0.0
0.29 0.05 0.0
0.3 0.05 0.0
0.31 0.05 0.0
0.32 0.05 0.0
0.33 0.05 0.0
0.34 0.05 0.0
0.35000000000000003 0.05 0.0
0.36 0.05 0.0
0.37 0.05 0.0
0.38 0.05 0.0
0.39 0.05 0.0
0.4 0.05 0.0
0.41000000000000003 0.05 0.0
0.42 0.05 0.0
0.43 0.05 0.0
0.44 0.05 0.0
0.45 0.05 0.0
0.46 0.05 0.0
0.47000000000000003 0.05 0.0
0.48 0.05 0.0
0.49 0.05 0.0
0.5 0.05 0.0
0.51 0.05 0.0
0.52 0.05 0.0
0.53 0.05 0.0
0.54 0.05 0.0
0.55 0.05 0.0
0.56 0.05 0.0
0.5700000000000001 0.05 0.0
0.58 0.05 0.0
0.59 0.05 0.0
0.6 0.05 0.0
0.61 0.05 0.0
0.62 0.05 0.0
0.63 0.05 0.0
0.64 0.05 0.0
0.65 0.05 0.0
0.66 0.05 0.0
0.67 0.05 0.0
0.68 0.05 0.0
0.6900000000000001 0.05 0.0
0.7000000000000001 0.05 0.0
0.71 0.05 0.0
0.72 0.05 0.0
0.73 0.05 0.0
0.74 0.05 0.0
0.75 0.05 0.0
0.76 0.05 0.0
0.77 0.05 0.0
0.78 0.05 0.0
0.79 0.05 0.0
0.8 0.05 0.0
0.81 0.05 0.0
0.8200000000000001 0.05 0.0
0.8300000000000001 0.05 0.0
0.84 0.05 0.0
0.85 0.05 0.0
0.86 0.05 0.0
0.87 0.05 0.0
0.88 0.05 0.0
0.89 0.05 0.0
0.9 0.05 0.0
0.91 0.05 0.0
0.92 0.05 0.0
0.93 0.05 0.0
0.9400000000000001 0.05 0.0
0.9500000000000001 0.05 0.0
0.96 0.05 0.0
0.97 0.05 0.0
0.98 0.05 0.0
0.99 0.05 0.0
1.0 0.05 0.0
0.0 0.06 0.0
0.01 0.06 0.0
0.02 0.06 0.0
0.03 0.06 0.0
0.04 0.06 0.0
0.05 0.06 0.0
0.06 0.06 0.0
0.07 0.06 0.0
0.08 0.06 0.0
0.09 0.06 0.0
0.1 0.06 0.0
0.11 0.06 0.0
0.12 0.06 0.0
0.13 0.06 0.0
0.14 0.06 0.0
0.15 0.06 0.0
0.16 0.06 0.0
0.17 0.06 0.0
0.18 0.06 0.0
0.19 0.06 0.0
0.2 0.06 0.0
0.21 0.06 0.0
0.22 0.06 0.0
0.23 0.06 0.0
0.24 0.06 0.0
0.25 0.06 0.0
0.26 0.06 0.0
0.27 0.06 0.0
0.28 0.06 0.0
0.29 0.06 0.0
0.3 0.06 0.0
0.31 0.06 0.0
0.32 0.06 0.0
0.33 0.06 0.0
0.34 0.06 0.0
0.35000000000000003 0.06 0.0
0.36 0.06 0.0
0.37 0.06 0.0
0.38 0.06 0.0
0.39 0.06 0.0
0.4 0.06 0.0
0.41000000000000003 0.06 0.0
0.42 0.06 0.0
0.43 0.06 0.0
0.44 0.06 0.0
0.45 0.06 0.0
0.46 0.06 0.0
[...]
POINT_DATA  10201
FIELD  FlowField  4
Density    1 10201  double
3.7773351527657546
3.7306650775332706
3.63033802355128
3.5183285914721316
3.3984084472031872
3.274870444255225
3.152816088561848
3.0360005783969015
2.926668450642647
2.825919768889298
2.734148702313714
2.651392237052515
2.5775528792337132
2.5125176708534784
2.4562107654437035
2.4086186399190552
2.3698125243815458
2.3399355197321348
2.3191369367860486
2.307539156500643
2.305242739753544
2.31230866188472
2.3287241963903704
2.3543641483802995
2.388956564471966
2.4320714758543884
2.4831751926689574
2.5416808702933604
2.606930282443402
2.6781727826440154
2.754559864211393
2.83513870038212
2.918842811356746
3.0044817831328237
3.0907321087824733
3.176128918750594
3.2590550511560776
3.337720446141075
3.4101213797211374
3.4739664577233436
3.5265546775642536
3.564589582396305
3.583917334356724
3.5791897271126594
3.5434886030085777
3.4680313605686974
3.3422440529764352
3.1547859440325343
2.8965210248293594
2.566607382352312
2.1816612619336646
1.7835583847828254
1.434473788409999
1.1897142262269398
1.0618367975984662
1.0150229778222597
1.0029802881904506
1.000534487908081
1.000090091810081
1.000014424439099
1.0000022039038328
1.00000032254265
1.00000004537933
1.0000000061595828
1.00000000080937
1.0000000001032823
1.0000000000128357
1.000000000001557
1.0000000000001843
1.0000000000000213
1.0000000000000022
1.0
1.0
1.0
1.0
1.0
1.0
1.0
1.0
1.0
1.0
1.0
1.0
1.0
1.0
1.0
1.0
1.0
1.0
1.0
1.0
1.0
1.0
1.0
1.0
1.0
1.0
1.0
1.0
1.0
1.0
3.7796653234117428
3.728159175592249
3.6168690581410345
3.4925676943874473
3.3605269879126474
3.2254231119645524
3.092589466830578
2.96592561125816
2.8477360553005884
2.7391162853408537
2.640409206851177
2.55156997270588
2.4724034029478332
2.402695264844298
2.342273996625842
2.2910401479206732
2.248980254582977
2.216151626760972
2.1926457751042463
2.178563652057475
2.1740043344146995
2.179046728656449
2.1937177723615275
2.217953876147588
2.2515629841424625
2.2941984612827113
2.3453823919152343
2.4045645416397567
2.4711373785435704
2.5444141537384866
2.6236152349648307
2.707857704217803
2.796141995128732
2.8873377948002563
2.9801728265485723
3.0732259837766693
3.164922948224911
3.253528787528611
3.3371282500436363
3.4135816900821836
3.480442490812222
3.5348195717540167
3.573169033692854
3.591005117930568
3.582540649361899
3.540318535315109
3.455006183816735
3.315735929775065
3.1117099956686585
2.836123170070407
2.493175565920246
2.1065564948289928
1.7226742130599053
1.3991769818261173
1.1776516936399353
1.0604290227042599
1.0152002873819748
1.002975674926765
1.0005106779791193
1.0000818987494957
1.0000124843455773
1.0000018196677778
1.0000002546522404
1.0000000343467381
1.0000000044810338
1.000000000567403
1.0000000000699454
1.000000000008417
1.0000000000009908
1.000000000000114
1.0000000000000127
1.000000000000001
1.0
1.0
1.0
1.0
1.0
1.0
1.0
1.0
1.0
1.0
1.0
1.0
1.0
1.0
1.0
1.0
1.0
1.0
1.0
1.0
1.0
1.0
1.0
1.0
1.0
1.0
1.0
1.0
1.0
3.7653670366910297
3.703961214990605
3.570240900754839
3.4210398708027676
3.264969759502414
3.1074356130827105
2.954066660679563
2.808913810245037
2.674298652975955
2.551237923962928
2.439929949658451
2.3401431998778044
2.2514752065330805
2.1735021707598303
2.10585427135027
2.0482495567148513
2.000497814847264
1.962487032042629
1.9341773279399819
1.915591574589373
1.9067986568277975
1.907891549156124
1.9189562114160803
1.9400371762268371
1.9710960368089634
2.0119668950377463
2.0623292208413218
2.1217364475728875
2.189681200321832
2.2656147289983535
2.3489208661857397
2.438890990780212
2.534699531058629
2.6353779045072194
2.739793279390138
2.8466371531056187
2.9544253238201508
3.061507009271241
3.1660764449287644
3.26617711922466
3.359686460643999
3.4442655485796374
3.5172548802001242
3.5754946280624162
3.615048314689383
3.6308182120180295
3.6160718098177314
3.561977089686021
3.4574177331988842
3.289709054962284
3.047381527949439
2.726426598768705
2.3400012164025212
1.9269106173181985
1.5481909043843862
1.2634968620886253
1.0971243878796941
1.0260727536913525
1.0051627734029078
1.0008545248781817
1.0001306430993202
1.0000189847500733
1.0000026434390767
1.0000003542943332
1.0000000458880305
1.0000000057642842
1.0000000007045773
1.0000000000840465
1.0000000000098086
1.0000000000011218
1.0000000000001257
1.0000000000000135
1.000000000000001
1.0
1.0
1.0
1.0
1.0
1.0
1.0
1.0
1.0
1.0
1.0
1.0
1.0
1.0
1.0
1.0
1.0
1.0
1.0
1.0
1.0
1.0
1.0
1.0
1.0
1.0
1.0
1.0
3.7186961911523015
3.6468766152277325
3.4895505207143866
3.3145577935463573
3.1345899205057557
2.955810089073659
2.783853977659156
2.622639544706967
2.4742787821865906
2.3395422274592645
2.2183734486681033
2.1102883260170424
2.014639908639929
1.9307726904360991
1.8581008933053167
1.7961403493776422
1.7445113010256275
1.7029314174753225
1.6712108799335028
1.649247471545405
1.637020160813032
1.634574344822205
1.6420030199197497
1.6594180045711597
1.6869070231526022
1.7244869445359643
1.7720540463192866
1.8293521659692957
1.8960028378415263
1.9715865194561895
2.0556760033871293
2.147797940864036
2.247381554694211
2.353711880044248
2.4658886245253226
2.5827971927831594
2.703096604661401
2.8252261553708307
2.9474271313231686
3.06777208532961
3.184192465937902
3.2944925931061353
3.3963336088311853
3.487166393983461
3.5640881126698476
3.6235941463960955
3.661199454030199
3.6709196234655503
3.644653684997888
3.5716418523453672
3.4384681844328444
3.230680269812227
2.9377284307279807
2.5624890309002115
2.1335089724751652
1.7099497519490967
1.3646104647506943
1.1444331648403763
1.041449695702212
1.0084347815030772
1.001357488494561
1.0001981667605062
1.0000274765427395
1.0000036588201786
1.0000004702852356
1.0000000585810593
1.0000000070967991
1.0000000008387535
1.000000000096974
1.000000000010993
1.000000000001224
1.000000000000134
1.000000000000014
1.000000000000001
1.0
1.0
1.0
1.0
1.0
1.0
1.0
1.0
1.0
1.0
1.0
1.0
1.0
1.0
1.0
1.0
1.0
1.0
1.0
1.0
1.0
1.0
1.0
1.0
1.0
1.0
1.0
3.650048681079098
3.5671036182566542
3.3845586881650815
3.1824019715442713
2.9782175458838713
2.7790727705095013
2.590387339144856
2.415627129677291
2.256429067307144
2.1131047519483444
1.9851917166035076
1.87185556959995
1.772145985920241
1.6851408282193505
1.6100158612924604
1.5460696787336565
1.4927250938441456
1.4495232006719896
1.416115780277862
1.3922566082297838
1.377794281928409
1.3726680831635902
1.376905266117966
1.3906086709433838
1.4139320033228642
1.4470374324687376
1.4900368843974663
1.5429343290306132
1.6055849660716717
1.6777254013723055
1.7590718563210208
1.8493783073625347
1.9483837534171937
2.0557180018599346
2.1708299594851717
2.2929283126416977
2.420941671541444
2.55350599881975
2.688978249802642
2.8254681767072585
2.9608829634320406
3.0929774959250143
3.219398172671307
3.3377028113590814
3.4453337250389957
3.5395157001063278
3.6170460003073646
3.673941123165458
3.704911365821772
3.7026652301060774
3.6571394858745445
3.5549857698925793
3.3801922933520636
3.117602012671019
2.761478851979964
2.3293755226602872
1.8739773477414121
1.4751019928291318
1.2004562795075224
1.0612240835433797
1.0129228954297869
1.0020406938434148
1.0002850551942406
1.000037753380064
1.0000048139650854
1.00000059428113
1.0000000713092385
1.0000000083449978
1.0000000009552004
1.0000000001072085
1.0000000000118234
1.0000000000012834
1.000000000000137
1.000000000000014
1.000000000000001
1.0
1.0
1.0
1.0
1.0
1.0
1.0
1.0
1.0
1.0
1.0
1.0
1.0
1.0
1.0
1.0
1.0
1.0
1.0
1.0
1.0
1.0
1.0
1.0
1.0
1.0
3.567331061321856
3.4723109799554015
3.2625491885506377
3.03169413098711
2.8030147034106636
2.5845597695259817
2.381277002115223
2.1958134217318186
2.0290331822600587
1.8805561502542851
1.7493481346265831
1.6341174399062872
1.5335474485169254
1.4464156176028125
1.371642979845066
1.3083054341193645
1.2556277575654242
1.2129720669656645
1.179825043966518
1.1557867997562015
1.140563506496616
1.1339642176852556
1.135901434984352
1.1463945877506763
1.1655710041758671
1.1936502310087063
1.2309015931123384
1.2775758532586274
1.333832487046147
1.3996873900830344
1.4750384883729095
1.559782328378689
1.6539092400104318
1.7574338400380132
1.870242171302552
1.991988940385303
2.1220239077796417
2.2593474945385417
2.4025969241947305
2.550057445096625
2.6996983169323885
2.8492317976653316
2.9961854759799063
3.1379762596599736
3.2719676448933215
3.3954850496971867
3.5057583468975633
3.5997550361754187
3.67386284583906
3.7233800510391477
3.741787903942532
3.7198430315462128
3.644709146405245
3.4998125122602617
3.2670481250222814
2.9339653780594923
2.507789128919889
2.0321817853774946
1.588677480659134
1.2621044361468419
1.0845529471349251
1.0185529757741605
1.0028978632627887
1.0003883240915146
1.0000491978542656
1.0000060164776914
1.000000714573013
1.0000000827431104
1.000000009370328
1.0000000010405408
1.0000000001135558
1.0000000000122014
1.0000000000012925
1.000000000000135
1.0000000000000135
1.000000000000001
1.0
1.0
1.0
1.0
1.0
1.0
1.0
1.0
1.0
1.0
1.0
1.0
1.0
1.0
1.0
1.0
1.0
1.0
1.0
1.0
1.0
1.0
1.0
1.0
1.0
3.475247382624307
3.3670500919678217
3.1279954614812286
2.8672657244499957
2.614490968631785
2.3785470684253194
2.1634906825326854
1.9707351690914172
1.8000549981922842
1.6501581229169981
1.519299379112236
1.4056489284231204
1.3074815467392549
1.223256349067055
1.1516366312593065
1.0914812556178444
1.0418256121034584
1.001860830138859
0.9709151036877123
0.9484396281634578
0.9340001070639152
0.9272736164067332
0.9280500231217933
0.9362369729608926
0.9518679240156147
0.9751125689419833
1.006274748063812
1.045758639039309
1.0939880285267998
1.151311591114301
1.217942274267952
1.2939792693669256
1.3795450843477792
1.4749113295683665
1.580410164241244
1.696224872388067
1.8222502567925585
1.9580089156444411
2.102602830728605
2.2546964280893618
2.4125240837950264
2.573924215389262
2.7364027346620152
2.897225087957619
3.053522724807065
3.2023893239541237
3.3409402252173006
3.466301549462349
3.5754893339036204
3.665132886153812
3.730992368234796
3.7672264420110677
3.7654042931676894
3.713397371718462
3.5946668082265307
3.3893779179266916
3.080104972762835
2.66516906800613
2.1784193902675515
1.699294440147435
1.3255668048292029
1.1099421699398575
1.02499457697617
1.0038820235920618
1.000500381661827
1.0000607502804977
1.0000071384234994
1.0000008172696364
1.0000000915001421
1.0000000100460662
1.000000001084174
1.0000000001152318
1.000000000012081
1.0000000000012506
1.0000000000001277
1.0000000000000127
1.000000000000001
1.0
1.0
1.0
1.0
1.0
1.0
1.0
1.0
1.0
1.0
1.0
1.0
1.0
1.0
1.0
1.0
1.0
1.0
1.0
1.0
1.0
1.0
1.0
1.0
3.3761115734486298
3.253579964499859
2.9833856336461175
2.692419444794218
2.4170887492518682
2.1665753783974755
1.9434024729362223
1.747318613086454
1.5767254016760466
1.4292524492371088
1.3023565093361267
1.1936298700401342
1.1009260515795622
1.0223887972073904
0.9564361050522422
0.9017279214751405
0.8571314107703972
0.821689797294567
0.7945972826921239
0.7751809487802847
0.762889434716801
0.7572876189785376
0.7580563096477163
0.7649961853571996
0.778035800119354
0.7972438757693382
0.822845924619216
0.8552388144305507
0.8949649567028557
0.9426264166772317
0.9987692700287866
1.0638211970751645
1.1381187862636442
1.2220444703418756
1.3161736926372467
1.4211827382624531
1.537582856996738
1.6655321622656802
1.8047530439261432
1.954486507974328
2.113462912650454
2.279893011589035
2.451496699054388
2.625574144154664
2.7991134912787934
2.968923144169532
3.1317684575834397
3.2844785997879278
3.423984202100921
3.547243913995806
3.6510104943107082
3.731381098293117
3.7830733473631484
3.7983931206948562
3.7659605056601215
3.6695819446054507
3.4884964851418556
3.2017089100666993
2.800253570095025
2.3085691881521004
1.8017915636113302
1.3868750222002109
1.1354705689408795
1.031689173745604
1.004902132870313
1.0006092614555238
1.0000710299086184
1.0000080367837771
1.0000008888586176
1.0000000964169644
1.0000000102829485
1.0000000010804277
1.0000000001120228
1.0000000000114775
1.000000000001163
1.0000000000001166
1.0000000000000115
1.0000000000000009
1.0
1.0
1.0
1.0
1.0
1.0
1.0
1.0
1.0
1.0
1.0
1.0
1.0
1.0
1.0
1.0
1.0
1.0
1.0
1.0
1.0
1.0
1.0
3.270617030671489
3.1326553512908664
2.8300181551886587
2.5096366144564817
2.2146624955811323
1.9536298733362298
1.7267213123408771
1.5316398650656897
1.3651991589226802
1.223859037505545
1.1042527178350325
1.0034000794554199
0.9187530443563583
0.848166333721834
0.7898428103849432
0.7422764331717164
0.7042018842936065
0.6745534352645353
0.6524330737845017
0.6370870788274444
0.6278899976589143
0.624334893950045
0.62602876477603
0.6326924909350922
0.6441655050208531
0.6604159505625251
0.6815569673428495
0.7078688917384883
0.7398255066944083
0.7780874230327128
0.8234110650270248
0.8765136924839959
0.9380357705936231
1.008575089818427
1.0887945474753267
1.179585693780726
1.281976803190482
1.396808005302225
1.5245167760075506
1.6650652422439738
1.8178803150973841
1.9817987935311492
2.1550422215818696
2.335236122339233
2.5194817833005367
2.7044809368032787
2.8866975179501244
3.062530409247775
3.2284654345087915
3.381164640559426
3.517441927119071
3.634072642216989
3.7273772320394176
3.792512448209573
3.8224124108414474
3.8063978867030523
3.7287400258319736
3.5682293107206338
3.3013365847420792
2.9133075031789826
2.4202440169128954
1.8921571561937642
1.4423575388851795
1.1590705568372144
1.0379425767664336
1.0058341487797562
1.0007004150062564
1.0000785927916307
1.0000085831062384
1.000000919134697
1.0000000968044804
1.0000000100486073
1.0000000010297723
1.0000000001043288
1.0000000000104614
1.0000000000010392
1.0000000000001021
1.0000000000000093
1.0000000000000007
1.0
1.0
1.0
1.0
1.0
1.0
1.0
1.0
1.0
1.0
1.0
1.0
1.0
1.0
1.0
1.0
1.0
1.0
1.0
1.0
1.0
1.0
3.158448506879277
3.0041579103070397
2.668632947131936
2.321127433746377
2.0108536269689727
1.744308876087338
1.5185018418418108
1.3288267680191088
1.1703851146171527
1.0384637328691988
0.9289164580765094
0.8382457689914828
0.7635545054565027
0.7024563953801903
0.6529847946071103
0.6135139455610197
0.5826954156058117
0.5594078749225425
0.5427175546579507
0.53184744251069
0.5261540522746875
0.525110805450662
0.5282970484265551
0.5353922069702599
0.5461755742014502
0.5605329462159846
0.5784710594024359
0.6001396703627521
0.625860118755062
0.6561591645320888
0.6917770818682346
0.7335667696112905
0.7823675277547477
0.8390252547364366
0.9044005330774922
0.9794312035959001
1.0653321248439127
1.1634778869383622
1.2750187867009415
1.400681215672317
1.5407061467815555
1.6947572370307873
1.8618284250141206
2.0401914728087434
2.2274039532811636
2.4203846350384923
2.6155513381958233
2.809009389575855
2.9967649782112904
3.174923284112482
3.3398254602523307
3.488073410258104
3.6163831544133576
3.7212019207937086
3.7980153222154964
3.8402674611932985
3.8378827208452044
3.775595852879052
3.631989954686927
3.381699851478572
3.005437972167083
2.512338561765822
1.9675213483745373
1.4889262302408504
1.1787965601090669
1.0430452241737551
1.0065455139053274
1.0007598563054818
1.000082266457642
1.000008694010757
1.0000009036137123
1.000000092607646
1.0000000093748727
1.0000000009387227
1.0000000000930802
1.0000000000091487
1.0000000000008917
1.0000000000000855
1.000000000000008
1.0000000000000007
1.0
1.0
1.0
1.0
1.0
1.0
1.0
1.0
1.0
1.0
1.0
1.0
1.0
1.0
1.0
1.0
1.0
1.0
1.0
1.0
1.0
3.0387777591603404
2.8676299643163654
2.4999785699855566
2.1293231228763023
1.8093721902300286
1.5428945803031737
1.3230837981729473
1.1429060866828085
0.9957612906544552
0.875857169433752
0.7783732206591814
0.6993861386942601
0.6357245137016183
0.584824025470003
0.5446065222969738
0.5133854619925565
0.4897922372425893
0.47271664996503593
0.46125704789809197
0.4546786322677195
0.4523800345325833
0.4538680095009126
0.458739312700651
0.4666690027815762
0.47740561860911257
0.4907746552393849
0.5066913833583286
0.5251825075018348
0.546414851653465
0.5707294171439076
0.5986804570283106
0.6310441430848527
0.6687019981664797
0.7125825428630271
0.7637174199490958
0.8231860872357138
0.8921916231292366
0.9722759619875091
1.0651201088132627
1.1721534118037853
1.2944154542811475
1.4324654876906044
1.5862423400615817
1.7549388013881972
1.9369202451085155
2.129712149455246
2.330071354249027
2.5341398428833193
2.7376624950361927
2.936238444363308
3.125566525833089
3.301632401411899
3.460779279737354
3.599604710161195
3.7146089677072816
3.8015043747890522
3.854125159041802
3.8628845966822087
3.812905048281685
3.682638557482041
3.445311887326498
3.0780877645997466
2.5845745841267536
2.025990208512281
1.5242069439179762
1.1930393362929277
1.0463949864288562
1.0069259632789938
1.000777730186392
1.0000814541630687
1.000008352435177
1.0000008446366775
1.0000000844185255
1.0000000083506542
1.0000000008184613
1.0000000000795557
1.0000000000076745
1.000000000000735
1.00000000000007
1.0000000000000064
1.0000000000000004
1.0
1.0
1.0
1.0
1.0
1.0
1.0
1.0
1.0
1.0
1.0
1.0
1.0
1.0
1.0
1.0
1.0
1.0
1.0
1.0
2.910742690565945
2.722781383758017
2.325288613178322
1.9371345111006715
1.6139930538356695
1.3532037564271255
1.143905907546759
0.9766581439834086
0.8433104451604025
0.737165203059239
0.6528740641780657
0.586200039347429
0.5337837695077491
0.49295590106013654
0.46159726768085735
0.43803444682328196
0.42095619838899656
0.4093406495658988
0.40238984842502823
0.39947327988682924
0.4000828197524124
0.40379941266515823
0.4102695595424523
0.41918971590442466
0.43029858578519786
0.4433789045072432
0.458269889110681
0.4748893930022306
0.4932629176026193
0.5135568557168703
0.536115178230664
0.5615002830198798
0.5904717020209151
0.6238973751128583
0.6627886015496454
0.7083165895850714
0.7617231252725487
0.8244712468074216
0.8984007684535972
0.9854320627015412
1.0872577979017588
1.2052528536650475
1.3403223743391268
1.4927140360280726
1.6618518653485144
1.8462265327976126
2.043363358970778
2.2498847621902334
2.4616731436489623
2.6741169283925164
2.8824046041014704
3.0818173679732115
3.267964954095346
3.436907058980243
3.585087083035399
3.7089884473990864
3.804463217745484
3.865637549670495
3.8832877155671177
3.8428038965909512
3.722462495190695
3.4943062303705994
3.132695126917075
2.6371224553906085
2.0664255897057373
1.5465665854787929
1.2006723942643107
1.0475944799319032
1.0069146316551492
1.000751043670178
1.0000762976729085
1.00000761202719
1.0000007507848188
1.0000000733382408
1.000000007102592
1.0000000006825762
1.0000000000651394
1.0000000000061766
1.0000000000005822
1.0000000000000542
1.0000000000000044
1.0000000000000004
1.0
1.0
1.0
1.0
1.0
1.0
1.0
1.0
1.0
1.0
1.0
1.0
1.0
1.0
1.0
1.0
1.0
1.0
1.0
2.7738349508714712
2.5698641918813614
2.146527578845034
1.7478978241758072
1.428336928139985
1.178400652375017
0.9833756811540265
0.831584718803816
0.713595260946214
0.6220278392018014
0.5511694475871092
0.49658663909821116
0.4548247023247073
0.42319517128160644
0.39962647173333865
0.38254937476208645
0.3707969933546643
0.36351108711098673
0.3600565456256058
0.35994992438966555
0.3628056799344029
0.368298874287782
0.3761399886404206
0.38605819273494885
0.3977926175860246
0.4110937880611093
0.4257369165440825
0.4415457763751102
0.4584230673881336
0.47638321557044283
0.49558611178711054
0.5163732893036559
0.5392926307136027
0.5650451870149515
0.5944954738728274
0.6287219679409166
0.6689604153634036
0.7165879000798078
0.7733241576989816
0.8412299416456719
0.9223961343761649
1.018787851469211
1.1321223031950862
1.2636581064883323
1.4139686868954013
1.58273570768316
1.7685999536963257
1.9691075120780461
2.1807671012925773
2.3992201923840564
2.619512208724216
2.8364266656968815
3.044827758744085
3.239948127874337
3.4175557755372443
3.5739034383181103
3.7054118784081176
3.8080192629125644
3.8760483025573826
3.900505965474427
3.866896154080707
3.7532040850421566
3.530357805432101
3.170479878369368
2.6703214118407823
2.088236860913893
1.5550818650470006
1.2011316388438256
1.046511591698267
1.0065150954264066
1.0006845009643521
1.0000676358431093
1.0000065830948166
1.000000634808338
1.0000000607324313
1.0000000057693088
1.0000000005445546
1.0000000000510996
1.0000000000047693
1.0000000000004425
1.0000000000000406
1.0000000000000036
1.0000000000000002
1.0
1.0
1.0
1.0
1.0
1.0
1.0
1.0