# vtk DataFile Version 3.0 
shock_diffraction_time_series_485_.vtk
ASCII
DATASET UNSTRUCTURED_GRID
POINTS         10201 double
0.0 0.0 0.0
0.01 0.0 0.0
0.02 0.0 0.0
0.03 0.0 0.0
0.04 0.0 0.0
0.05 0.0 0.0
0.06 0.0 0.0
0.07 0.0 0.0
0.08 0.0 0.0
0.09 0.0 0.0
0.1 0.0 0.0
0.11 0.0 0.0
0.12 0.0 0.0
0.13 0.0 0.0
0.14 0.0 0.0
0.15 0.0 0.0
0.16 0.0 0.0
0.17 0.0 0.0
0.18 0.0 0.0
0.19 0.0 0.0
0.2 0.0 0.0
0.21 0.0 0.0
0.22 0.0 0.0
0.23 0.0 0.0
0.24 0.0 0.0
0.25 0.0 0.0
0.26 0.0 0.0
0.27 0.0 0.0
0.28 0.0 0.0
0.29 0.0 0.0
0.3 0.0 0.0
0.31 0.0 0.0
0.32 0.0 0.0
0.33 0.0 0.0
0.34 0.0 0.0
0.35000000000000003 0.0 0.0
0.36 0.0 0.0
0.37 0.0 0.0
0.38 0.0 0.0
0.39 0.0 0.0
0.4 0.0 0.0
0.41000000000000003 0.0 0.0
0.42 0.0 0.0
0.43 0.0 0.0
0.44 0.0 0.0
0.45 0.0 0.0
0.46 0.0 0.0
0.47000000000000003 0.0 0.0
0.48 0.0 0.0
0.49 0.0 0.0
0.5 0.0 0.0
0.51 0.0 0.0
0.52 0.0 0.0
0.53 0.0 0.0
0.54 0.0 0.0
0.55 0.0 0.0
0.56 0.0 0.0
0.5700000000000001 0.0 0.0
0.58 0.0 0.0
0.59 0.0 0.0
0.6 0.0 0.0
0.61 0.0 0.0
0.62 0.0 0.0
0.63 0.0 0.0
0.64 0.0 0.0
0.65 0.0 0.0
0.66 0.0 0.0
0.67 0.0 0.0
0.68 0.0 0.0
0.6900000000000001 0.0 0.0
0.7000000000000001 0.0 0.0
0.71 0.0 0.0
0.72 0.0 0.0
0.73 0.0 0.0
0.74 0.0 0.0
0.75 0.0 0.0
0.76 0.0 0.0
0.77 0.0 0.0
0.78 0.0 0.0
0.79 0.0 0.0
0.8 0.0 0.0
0.81 0.0 0.0
0.8200000000000001 0.0 0.0
0.8300000000000001 0.0 0.0
0.84 0.0 0.0
0.85 0.0 0.0
0.86 0.0 0.0
0.87 0.0 0.0
0.88 0.0 0.0
0.89 0.0 0.0
0.9 0.0 0.0
0.91 0.0 0.0
0.92 0.0 0.0
0.93 0.0 0.0
0.9400000000000001 0.0 0.0
0.9500000000000001 0.0 0.0
0.96 0.0 0.0
0.97 0.0 0.0
0.98 0.0 0.0
0.99 0.0 0.0
1.0 0.0 0.0
0.0 0.01 0.0
0.01 0.01 0.0
0.02 0.01 0.0
0.03 0.01 0.0
0.04 0.01 0.0
0.05 0.01 0.0
0.06 0.01 0.0
0.07 0.01 0.0
0.08 0.01 0.0
0.09 0.01 0.0
0.1 0.01 0.0
0.11 0.01 0.0
0.12 0.01 0.0
0.13 0.01 0.0
0.14 0.01 0.0
0.15 0.01 0.0
0.16 0.01 0.0
0.17 0.01 0.0
0.18 0.01 0.0
0.19 0.01 0.0
0.2 0.01 0.0
0.21 0.01 0.0
0.22 0.01 0.0
0.23 0.01 0.0
0.24 0.01 0.0
0.25 0.01 0.0
0.26 0.01 0.0
0.27 0.01 0.0
0.28 0.01 0.0
0.29 0.01 0.0
0.3 0.01 0.0
0.31 0.01 0.0
0.32 0.01 0.0
0.33 0.01 0.0
0.34 0.01 0.0
0.35000000000000003 0.01 0.0
0.36 0.01 0.0
0.37 0.01 0.0
0.38 0.01 0.0
0.39 0.01 0.0
0.4 0.01 0.0
0.41000000000000003 0.01 0.0
0.42 0.01 0.0
0.43 0.01 0.0
0.44 0.01 0.0
0.45 0.01 0.0
0.46 0.01 0.0
0.47000000000000003 0.01 0.0
0.48 0.01 0.0
0.49 0.01 0.0
0.5 0.01 0.0
0.51 0.01 0.0
0.52 0.01 0.0
0.53 0.01 0.0
0.54 0.01 0.0
0.55 0.01 0.0
0.56 0.01 0.0
0.5700000000000001 0.01 0.0
0.58 0.01 0.0
0.59 0.01 0.0
0.6 0.01 0.0
0.61 0.01 0.0
0.62 0.01 0.0
0.63 0.01 0.0
0.64 0.01 0.0
0.65 0.01 0.0
0.66 0.01 0.0
0.67 0.01 0.0
0.68 0.01 0.0
0.6900000000000001 0.01 0.0
0.7000000000000001 0.01 0.0
0.71 0.01 0.0
0.72 0.01 0.0
0.73 0.01 0.0
0.74 0.01 0.0
0.75 0.01 0.0
0.76 0.01 0.0
0.77 0.01 0.0
0.78 0.01 0.0
0.79 0.01 0.0
0.8 0.01 0.0
0.81 0.01 0.0
0.8200000000000001 0.01 0.0
0.8300000000000001 0.01 0.0
0.84 0.01 0.0
0.85 0.01 0.0
0.86 0.01 0.0
0.87 0.01 0.0
0.88 0.01 0.0
0.89 0.01 0.0
0.9 0.01 0.0
0.91 0.01 0.0
0.92 0.01 0.0
0.93 0.01 0.0
0.9400000000000001 0.01 0.0
0.9500000000000001 0.01 0.0
0.96 0.01 0.0
0.97 0.01 0.0
0.98 0.01 0.0
0.99 0.01 0.0
1.0 0.01 0.0
0.0 0.02 0.0
0.01 0.02 0.0
0.02 0.02 0.0
0.03 0.02 0.0
0.04 0.02 0.0
0.05 0.02 0.0
0.06 0.02 0.0
0.07 0.02 0.0
0.08 0.02 0.0
0.09 0.02 0.0
0.1 0.02 0.0
0.11 0.02 0.0
0.12 0.02 0.0
0.13 0.02 0.0
0.14 0.02 0.0
0.15 0.02 0.0
0.16 0.02 0.0
0.17 0.02 0.0
0.18 0.02 0.0
0.19 0.02 0.0
0.2 0.02 0.0
0.21 0.02 0.0
0.22 0.02 0.0
0.23 0.02 0.0
0.24 0.02 0.0
0.25 0.02 0.0
0.26 0.02 0.0
0.27 0.02 0.0
0.28 0.02 0.0
0.29 0.02 0.0
0.3 0.02 0.0
0.31 0.02 0.0
0.32 0.02 0.0
0.33 0.02 0.0
0.34 0.02 0.0
0.35000000000000003 0.02 0.0
0.36 0.02 0.0
0.37 0.02 0.0
0.38 0.02 0.0
0.39 0.02 0.0
0.4 0.02 0.0
0.41000000000000003 0.02 0.0
0.42 0.02 0.0
0.43 0.02 0.0
0.44 0.02 0.0
0.45 0.02 0.0
0.46 0.02 0.0
0.47000000000000003 0.02 0.0
0.48 0.02 0.0
0.49 0.02 0.0
0.5 0.02 0.0
0.51 0.02 0.0
0.52 0.02 0.0
0.53 0.02 0.0
0.54 0.02 0.0
0.55 0.02 0.0
0.56 0.02 0.0
0.5700000000000001 0.02 0.0
0.58 0.02 0.0
0.59 0.02 0.0
0.6 0.02 0.0
0.61 0.02 0.0
0.62 0.02 0.0
0.63 0.02 0.0
0.64 0.02 0.0
0.65 0.02 0.0
0.66 0.02 0.0
0.67 0.02 0.0
0.68 0.02 0.0
0.6900000000000001 0.02 0.0
0.7000000000000001 0.02 0.0
0.71 0.02 0.0
0.72 0.02 0.0
0.73 0.02 0.0
0.74 0.02 0.0
0.75 0.02 0.0
0.76 0.02 0.0
0.77 0.02 0.0
0.78 0.02 0.0
0.79 0.02 0.0
0.8 0.02 0.0
0.81 0.02 0.0
0.8200000000000001 0.02 0.0
0.8300000000000001 0.02 0.0
0.84 0.02 0.0
0.85 0.02 0.0
0.86 0.02 0.0
0.87 0.02 0.0
0.88 0.02 0.0
0.89 0.02 0.0
0.9 0.02 0.0
0.91 0.02 0.0
0.92 0.02 0.0
0.93 0.02 0.0
0.9400000000000001 0.02 0.0
0.9500000000000001 0.02 0.0
0.96 0.02 0.0
0.97 0.02 0.0
0.98 0.02 0.0
0.99 0.02 0.0
1.0 0.02 0.0
0.0 0.03 0.0
0.01 0.03 0.0
0.02 0.03 0.0
0.03 0.03 0.0
0.04 0.03 0.0
0.05 0.03 0.0
0.06 0.03 0.0
0.07 0.03 0.0
0.08 0.03 0.0
0.09 0.03 0.0
0.1 0.03 0.0
0.11 0.03 0.0
0.12 0.03 0.0
0.13 0.03 0.0
0.14 0.03 0.0
0.15 0.03 0.0
0.16 0.03 0.0
0.17 0.03 0.0
0.18 0.03 0.0
0.19 0.03 0.0
0.2 0.03 0.0
0.21 0.03 0.0
0.22 0.03 0.0
0.23 0.03 0.0
0.24 0.03 0.0
0.25 0.03 0.0
0.26 0.03 0.0
0.27 0.03 0.0
0.28 0.03 0.0
0.29 0.03 0.0
0.3 0.03 0.0
0.31 0.03 0.0
0.32 0.03 0.0
0.33 0.03 0.0
0.34 0.03 0.0
0.35000000000000003 0.03 0.0
0.36 0.03 0.0
0.37 0.03 0.0
0.38 0.03 0.0
0.39 0.03 0.0
0.4 0.03 0.0
0.41000000000000003 0.03 0.0
0.42 0.03 0.0
0.43 0.03 0.0
0.44 0.03 0.0
0.45 0.03 0.0
0.46 0.03 0.0
0.47000000000000003 0.03 0.0
0.48 0.03 0.0
0.49 0.03 0.0
0.5 0.03 0.0
0.51 0.03 0.0
0.52 0.03 0.0
0.53 0.03 0.0
0.54 0.03 0.0
0.55 0.03 0.0
0.56 0.03 0.0
0.5700000000000001 0.03 0.0
0.58 0.03 0.0
0.59 0.03 0.0
0.6 0.03 0.0
0.61 0.03 0.0
0.62 0.03 0.0
0.63 0.03 0.0
0.64 0.03 0.0
0.65 0.03 0.0
0.66 0.03 0.0
0.67 0.03 0.0
0.68 0.03 0.0
0.6900000000000001 0.03 0.0
0.7000000000000001 0.03 0.0
0.71 0.03 0.0
0.72 0.03 0.0
0.73 0.03 0.0
0.74 0.03 0.0
0.75 0.03 0.0
0.76 0.03 0.0
0.77 0.03 0.0
0.78 0.03 0.0
0.79 0.03 0.0
0.8 0.03 0.0
0.81 0.03 0.0
0.8200000000000001 0.03 0.0
0.8300000000000001 0.03 0.0
0.84 0.03 0.0
0.85 0.03 0.0
0.86 0.03 0.0
0.87 0.03 0.0
0.88 0.03 0.0
0.89 0.03 0.0
0.9 0.03 0.0
0.91 0.03 0.0
0.92 0.03 0.0
0.93 0.03 0.0
0.9400000000000001 0.03 0.0
0.9500000000000001 0.03 0.0
0.96 0.03 0.0
0.97 0.03 0.0
0.98 0.03 0.0
0.99 0.03 0.0
1.0 0.03 0.0
0.0 0.04 0.0
0.01 0.04 0.0
0.02 0.04 0.0
0.03 0.04 0.0
0.04 0.04 0.0
0.05 0.04 0.0
0.06 0.04 0.0
0.07 0.04 0.0
0.08 0.04 0.0
0.09 0.04 0.0
0.1 0.04 0.0
0.11 0.04 0.0
0.12 0.04 0.0
0.13 0.04 0.0
0.14 0.04 0.0
0.15 0.04 0.0
0.16 0.04 0.0
0.17 0.04 0.0
0.18 0.04 0.0
0.19 0.04 0.0
0.2 0.04 0.0
0.21 0.04 0.0
0.22 0.04 0.0
0.23 0.04 0.0
0.24 0.04 0.0
0.25 0.04 0.0
0.26 0.04 0.0
0.27 0.04 0.0
0.28 0.04 0.0
0.29 0.04 0.0
0.3 0.04 0.0
0.31 0.04 0.0
0.32 0.04 0.0
0.33 0.04 0.0
0.34 0.04 0.0
0.35000000000000003 0.04 0.0
0.36 0.04 0.0
0.37 0.04 0.0
0.38 0.04 0.0
0.39 0.04 0.0
0.4 0.04 0.0
0.41000000000000003 0.04 0.0
0.42 0.04 0.0
0.43 0.04 0.0
0.44 0.04 0.0
0.45 0.04 0.0
0.46 0.04 0.0
0.47000000000000003 0.04 0.0
0.48 0.04 0.0
0.49 0.04 0.0
0.5 0.04 0.0
0.51 0.04 0.0
0.52 0.04 0.0
0.53 0.04 0.0
0.54 0.04 0.0
0.55 0.04 0.0
0.56 0.04 0.0
0.5700000000000001 0.04 0.0
0.58 0.04 0.0
0.59 0.04 0.0
0.6 0.04 0.0
0.61 0.04 0.0
0.62 0.04 0.0
0.63 0.04 0.0
0.64 0.04 0.0
0.65 0.04 0.0
0.66 0.04 0.0
0.67 0.04 0.0
0.68 0.04 0.0
0.6900000000000001 0.04 0.0
0.7000000000000001 0.04 0.0
0.71 0.04 0.0
0.72 0.04 0.0
0.73 0.04 0.0
0.74 0.04 0.0
0.75 0.04 0.0
0.76 0.04 0.0
0.77 0.04 0.0
0.78 0.04 0.0
0.79 0.04 0.0
0.8 0.04 0.0
0.81 0.04 0.0
0.8200000000000001 0.04 0.0
0.8300000000000001 0.04 0.0
0.84 0.04 0.0
0.85 0.04 0.0
0.86 0.04 0.0
0.87 0.04 0.0
0.88 0.04 0.0
0.89 0.04 0.0
0.9 0.04 0.0
0.91 0.04 0.0
0.92 0.04 0.0
0.93 0.04 0.0
0.9400000000000001 0.04 0.0
0.9500000000000001 0.04 0.0
0.96 0.04 0.0
0.97 0.04 0.0
0.98 0.04 0.0
0.99 0.04 0.0
1.0 0.04 0.0
0.0 0.05 0.0
0.01 0.05 0.0
0.02 0.05 0.0
0.03 0.05 0.0
0.04 0.05 0.0
0.05 0.05 0.0
0.06 0.05 0.0
0.07 0.05 0.0
0.08 0.05 0.0
0.09 0.05 0.0
0.1 0.05 0.0
0.11 0.05 0.0
0.12 0.05 0.0
0.13 0.05 0.0
0.14 0.05 0.0
0.15 0.05 0.0
0.16 0.05 0.0
0.17 0.05 0.0
0.18 0.05 0.0
0.19 0.05 0.0
0.2 0.05 0.0
0.21 0.05 0.0
0.22 0.05 0.0
0.23 0.05 0.0
0.24 0.05 0.0
0.25 0.05 0.0
0.26 0.05 0.0
0.27 0.05 0.0
0.28 0.05 0.0
0.29 0.05 0.0
0.3 0.05 0.0
0.31 0.05 0.0
0.32 0.05 0.0
0.33 0.05 0.0
0.34 0.05 0.0
0.35000000000000003 0.05 0.0
0.36 0.05 0.0
0.37 0.05 0.0
0.38 0.05 0.0
0.39 0.05 0.0
0.4 0.05 0.0
0.41000000000000003 0.05 0.0
0.42 0.05 0.0
0.43 0.05 0.0
0.44 0.05 0.0
0.45 0.05 0.0
0.46 0.05 0.0
0.47000000000000003 0.05 0.0
0.48 0.05 0.0
0.49 0.05 0.0
0.5 0.05 0.0
0.51 0.05 0.0
0.52 0.05 0.0
0.53 0.05 0.0
0.54 0.05 0.0
0.55 0.05 0.0
0.56 0.05 0.0
0.5700000000000001 0.05 0.0
0.58 0.05 0.0
0.59 0.05 0.0
0.6 0.05 0.0
0.61 0.05 0.0
0.62 0.05 0.0
0.63 0.05 0.0
0.64 0.05 0.0
0.65 0.05 0.0
0.66 0.05 0.0
0.67 0.05 0.0
0.68 0.05 0.0
0.6900000000000001 0.05 0.0
0.7000000000000001 0.05 0.0
0.71 0.05 0.0
0.72 0.05 0.0
0.73 0.05 0.0
0.74 0.05 0.0
0.75 0.05 0.0
0.76 0.05 0.0
0.77 0.05 0.0
0.78 0.05 0.0
0.79 0.05 0.0
0.8 0.05 0.0
0.81 0.05 0.0
0.8200000000000001 0.05 0.0
0.8300000000000001 0.05 0.0
0.84 0.05 0.0
0.85 0.05 0.0
0.86 0.05 0.0
0.87 0.05 0.0
0.88 0.05 0.0
0.89 0.05 0.0
0.9 0.05 0.0
0.91 0.05 0.0
0.92 0.05 0.0
0.93 0.05 0.0
0.9400000000000001 0.05 0.0
0.9500000000000001 0.05 0.0
0.96 0.05 0.0
0.97 0.05 0.0
0.98 0.05 0.0
0.99 0.05 0.0
1.0 0.05 0.0
0.0 0.06 0.0
0.01 0.06 0.0
0.02 0.06 0.0
0.03 0.06 0.0
0.04 0.06 0.0
0.05 0.06 0.0
0.06 0.06 0.0
0.07 0.06 0.0
0.08 0.06 0.0
0.09 0.06 0.0
0.1 0.06 0.0
0.11 0.06 0.0
0.12 0.06 0.0
0.13 0.06 0.0
0.14 0.06 0.0
0.15 0.06 0.0
0.16 0.06 0.0
0.17 0.06 0.0
0.18 0.06 0.0
0.19 0.06 0.0
0.2 0.06 0.0
0.21 0.06 0.0
0.22 0.06 0.0
0.23 0.06 0.0
0.24 0.06 0.0
0.25 0.06 0.0
0.26 0.06 0.0
0.27 0.06 0.0
0.28 0.06 0.0
0.29 0.06 0.0
0.3 0.06 0.0
0.31 0.06 0.0
0.32 0.06 0.0
0.33 0.06 0.0
0.34 0.06 0.0
0.35000000000000003 0.06 0.0
0.36 0.06 0.0
0.37 0.06 0.0
0.38 0.06 0.0
0.39 0.06 0.0
0.4 0.06 0.0
0.41000000000000003 0.06 0.0
0.42 0.06 0.0
0.43 0.06 0.0
0.44 0.06 0.0
0.45 0.06 0.0
0.46 0.06 0.0
[...]
POINT_DATA  10201
FIELD  FlowField  4
Density    1 10201  double
3.2570106540770225
3.132133633440007
2.8481699395686
2.5321548350298055
2.230877901213841
1.95846587745565
1.7187398515203132
1.5110397420245367
1.3331435971281302
1.1818556623329013
1.0536831568563492
0.9452957120922912
0.8537266471684768
0.7764307939684634
0.7112728057742452
0.6564859425541263
0.6106205599966934
0.57249108932377
0.5411259055517845
0.5157226531129752
0.495610426515508
0.4802192419330874
0.4690566537006533
0.4616911223857897
0.45774147906779317
0.4568713822824233
0.4587872928304029
0.46323857369489935
0.470018898909887
0.47896889146697297
0.48998040798744963
0.5030029647694058
0.5180525697046199
0.5352229488480746
0.5546990578073494
0.5767728592332044
0.6018614684325305
0.6305279471870266
0.6634692750652752
0.7014049634336151
0.7450593969321462
0.7952186836916271
0.8526614395955305
0.9181392971970559
0.9926111689332754
1.0772347879827802
1.1730386182907506
1.2807846198606554
1.4009312345335834
1.5335752493945716
1.6783802507844092
1.8345187877342297
2.000642342531071
2.174888442077389
2.3549304260310486
2.538069922194855
2.7213659283035683
2.901787895690945
3.076374644655526
3.242383891984116
3.3974105903930765
3.5394469811127003
3.666864271912556
3.778295544727001
3.8723873821261456
3.947377738944578
4.000448334113285
4.026764518651742
4.018120440252891
3.9612252941367845
3.8360707274374684
3.615929506225961
3.272710187430318
2.794254757171597
2.2174452914640113
1.6548305053925696
1.2509936093535166
1.0611125417319909
1.009229223260528
1.0010927995558314
1.0001218649640329
1.0000132800121784
1.0000014229794605
1.000000150279023
1.000000015667779
1.0000000016147574
1.000000000164698
1.000000000016641
1.0000000000016662
1.0000000000001648
1.0000000000000158
1.0000000000000013
1.0
1.0
1.0
1.0
1.0
1.0
1.0
1.0
1.0
3.2110837802112773
3.078671149879457
2.779101607187826
2.4494789414147897
2.139949991728159
1.8641757465901034
1.6245566509869174
1.4193123863788426
1.2454002155601376
1.099006688977891
0.976218864448884
0.8734262815088213
0.7874743775835106
0.7156881331452521
0.655837895544103
0.6060846093726993
0.5649214182281118
0.5311184714253403
0.5036732939415616
0.4817671960553901
0.46472746328189807
0.4519950368315396
0.4430978041391925
0.43762994443686837
0.43523751533175903
0.43560966975669135
0.43847415292006453
0.4435956057374192
0.4507757271516351
0.45985510011984554
0.4707170008406385
0.48329358013712287
0.49757455542344675
0.5136182655703863
0.5315648716403243
0.5516516492619228
0.5742305630522031
0.5997885488017047
0.6289531332070523
0.6624237659136194
0.700922262462492
0.7452378970030382
0.7962064694692474
0.8546557894678799
0.9215236705955729
0.9979695460170734
1.0851914856315117
1.1841908334814486
1.295694731953441
1.4201024015741774
1.5574076122904714
1.7071237633731928
1.868228397151546
2.039142587293374
2.2177544777691143
2.401489520336135
2.5874244954194094
2.772435974993461
2.9533679822122223
3.127199297875247
3.291188155070718
3.442972947640973
3.5806071114336753
3.7025061722422405
3.8072743235150903
3.893375413149985
3.958612481495599
3.999337340593643
4.009301623785401
3.978126099399458
3.889602308541891
3.720766941167812
3.4443264370382884
3.0396371757949354
2.517615071791621
1.9507717153295165
1.465961831190946
1.1636499917712348
1.0375582737311602
1.0054827981310481
1.0006281803787513
1.0000679094087375
1.0000071927276062
1.00000075083635
1.0000000774054376
1.0000000078917024
1.0000000007965832
1.0000000000796827
1.0000000000079048
1.0000000000007778
1.0000000000000755
1.000000000000007
1.0000000000000004
1.0
1.0
1.0
1.0
1.0
1.0
1.0
1.0
3.1177124233077977
2.9698362141437458
2.6390319790886005
2.28366870104506
1.9601524300804045
1.6803501427374465
1.44335855347675
1.2450553323188618
1.0806795628467907
0.9451980239593989
0.833905147240848
0.7426852976038332
0.6680594451676264
0.6071376175681155
0.5575412830020378
0.5173247098151039
0.48490571746041244
0.459007282786431
0.43860770918339675
0.42289619268681417
0.41123156673447847
0.4031038990960043
0.3981003661043898
0.39587745183967316
0.396140703503627
0.3986316699180774
0.40312037748770513
0.40940145661143196
0.41729268702926725
0.426635644035297
0.4372987227815703
0.44918286109323885
0.46222994585977106
0.47643352197633204
0.4918513569873387
0.5086196712240619
0.526969256943344
0.5472441127884538
0.5699234784625766
0.595618846161493
0.625009158549796
0.6588506390737536
0.6980165708368764
0.7434381049421216
0.7960709720113545
0.8570304545089001
0.927675849728296
1.0093884399756181
1.1033656240303211
1.210564804197901
1.3316226777294968
1.466747760204727
1.6156223235499696
1.777331471741365
1.9503288494874766
2.132450847475685
2.320986535487626
2.5128001520650267
2.7044965020554916
2.892610038985974
3.073795912847886
3.245001782893469
3.4035951935413014
3.547425091623947
3.67478732640597
3.7842613647270014
3.874406321637954
3.9432617800194976
3.987564590039191
4.001601684644278
3.975642731835828
3.8940977000168724
3.7342620241761963
3.468226630340233
3.0732875966185276
2.556632402764534
1.9866114258952865
1.4896069131074015
1.1734865345500518
1.0397907825824704
1.0057114822390738
1.000635741012498
1.000066783470333
1.0000068890404932
1.0000007018518537
1.0000000707450363
1.0000000070632904
1.0000000006991694
1.000000000068669
1.000000000006696
1.0000000000006484
1.0000000000000622
1.0000000000000058
1.0000000000000004
1.0
1.0
1.0
1.0
1.0
1.0
1.0
3.0193630470763972
2.8554996744721057
2.4940834946612704
2.116645376464536
1.784488651593579
1.5059425812307343
1.276097410879784
1.088380853229544
0.9362566154750585
0.8135540610395973
0.7148899780493729
0.6357554725852894
0.5724441426502093
0.521933875517214
0.4817719209150838
0.44997951006576264
0.42497634537886725
0.4055190347486125
0.3906467361945574
0.37962940782910193
0.37191737076557785
0.3670938719945793
0.3648338520638298
0.3648717415566332
0.36697922634623703
0.37095168446404647
0.3766006706609278
0.3837499285493484
0.39223350515974564
0.4018957701338687
0.41259385831769335
0.4242030296300449
0.43662492556018195
0.4497981381595917
0.46371034886710044
0.4784115800867686
0.49402859615795414
0.5107810458010089
0.5290003969136882
0.5491506602432085
0.571801102204561
0.5976087403537265
0.6273628576914033
0.6619792437093541
0.7024464888554568
0.7498264191402303
0.8054037372901262
0.8706955696061089
0.9472147900244652
1.0363415986651785
1.1392639479840827
1.2568608779844999
1.3895728873670024
1.537280225149554
1.6992086282924381
1.873880777119515
2.0591211837621763
2.2521216284850514
2.4495691658667043
2.6478251570594225
2.8431366634759128
3.0318550897184267
3.2106345350567853
3.376586023731343
3.5273611960978997
3.6611239269028717
3.7764062408753767
3.871823501486759
3.945572240206099
3.9946424662743527
4.013652760559516
3.993231027662927
3.918057073052441
3.765355899305841
3.5063701822069753
3.116157544672375
2.59815398138968
2.0182771272704536
1.506553969289062
1.178903763130725
1.0405185975284188
1.0056745497979742
1.0006136881416046
1.0000627805720834
1.0000063214421706
1.0000006298490827
1.0000000621912901
1.0000000060911374
1.0000000005922036
1.0000000000571907
1.0000000000054892
1.0000000000005236
1.0000000000000493
1.0000000000000044
1.0000000000000004
1.0
1.0
1.0
1.0
1.0
1.0
2.9135908444139718
2.7337603331051223
2.3436900155899214
1.9491594588204664
1.6141551571877952
1.3418076286107583
1.1229489359121447
0.9485947365075581
0.8105542573993259
0.7016926796899421
0.6161000034988455
0.5489911930717981
0.4965225593322399
0.4556149420376119
0.4238126615943558
0.3991779716733205
0.3802095505368323
0.3657728017795984
0.3550340954851472
0.34739641158846785
0.3424378835212799
0.3398567654934051
0.3394264332254273
0.3409625520889013
0.3443021189389747
0.34929178849811476
0.35578188456417636
0.36362311660700386
0.37266461319755334
0.3827534292652164
0.3937364977678981
0.40546584426737947
0.41780709613144
0.4306504513873063
0.4439229557368346
0.4576012467310254
0.471724508772076
0.4864080336104438
0.5018584068384901
0.5183925216117877
0.5364376939769975
0.5565155095102782
0.5792734037994864
0.6055076203865024
0.6361390246860914
0.6721871304222199
0.7148146730538555
0.765458624765692
0.8257426056230306
0.8972899842753579
0.9816654576374962
1.0802824871896908
1.194264393192753
1.3242906517944648
1.4704517482721706
1.6321316467653413
1.8079377856793353
1.9956967110535633
2.1925182245733943
2.3949273194991934
2.5990571030967793
2.8008813403282016
2.9964589983198735
3.182161008022978
3.354852975010618
3.5119885325607987
3.6515959407748224
3.772157912966063
3.8723276026165134
3.9504199853571578
4.003613471273837
4.026758192950036
4.010698405382358
3.9401921091289265
3.79216799409703
3.5368526198069827
3.1473349448870582
2.6247513391116613
2.0349178409340647
1.512354449161069
1.1787212050810028
1.0395481125786332
1.0053630197534689
1.0005635913788757
1.0000562646129225
1.0000055414959494
1.0000005409940516
1.0000000524150778
1.0000000050435807
1.0000000004822853
1.000000000045854
1.000000000004336
1.0000000000004077
1.0000000000000377
1.0000000000000033
1.0000000000000002
1.0
1.0
1.0
1.0
1.0
2.7998309093514444
2.604670598792639
2.189251615635883
1.7836273144818136
1.4516197677869815
1.1898283399120857
0.9849959130725371
0.8258715047035547
0.7028630099883673
0.608101576388369
0.5353209328533769
0.4795800925259791
0.43698821977301006
0.4044878204112106
0.3796984587191502
0.3608023631099071
0.3464511019532749
0.3356799827799246
0.32782594636135226
0.322450346532724
0.31926984899497846
0.31809856728034663
0.3188036453027927
0.3212749459156154
0.3254073134186374
0.3310918365551931
0.33821185605201487
0.34664052060431205
0.3562387180300036
0.3668540375815176
0.37832230519664295
0.39047292074531637
0.40313809770684356
0.41616484966866585
0.42942804973557624
0.4428432523705982
0.4563786888381302
0.4700666174179102
0.48401492708027843
0.49842126316551494
0.5135794770570059
0.5298724887814075
0.5477959812874788
0.5679855004097039
0.5912153798474094
0.6183948097015628
0.6505650890126559
0.6889963026586565
0.7352287728893028
0.7909454376821993
0.8578884129560809
0.937800269014379
1.0323047205559797
1.1427552164109671
1.2700643892439754
1.414532934038558
1.5757070646702667
1.752288256442237
1.9421135210232214
2.1422184777452484
2.3489770461523043
2.5583067903276264
2.7659219693095434
2.9676033705225473
3.15945459416305
3.3381053108148238
3.5008150888274776
3.645484420990514
3.7705480676652967
3.8746832870927594
3.9562921180918504
4.012684283157829
4.03885123172025
4.0257245852193755
3.957974417684156
3.8120679415942837
3.55718167093617
3.164852683149135
2.635202955903903
2.03588972147658
1.5067546428910499
1.172980427421566
1.036993884068297
1.0048218686608283
1.0004926252412203
1.0000480945473735
1.0000046426266418
1.000000444894997
1.0000000423635913
1.0000000040107042
1.000000000377702
1.0000000000353961
1.0000000000033022
1.0000000000003064
1.0000000000000278
1.0000000000000024
1.0000000000000002
1.0
1.0
1.0
1.0
2.6782603959848705
2.4691115367273
2.032964690178889
1.622822831612481
1.2992699866184514
1.0516015605154796
0.8629372191500982
0.7200257389435608
0.6122000559708273
0.5311049720406832
0.47028819474186373
0.4247724315775084
0.39071467883318
0.3651665587107367
0.34590710399976016
0.33131368063499217
0.3202482324844596
0.3119511742428488
0.30594446072015546
0.30194698483368154
0.2998042227919123
0.29943269468875877
0.3007793875572101
0.3037956348846563
0.3084232772799951
0.3145890270564633
0.32220240064065325
0.33115393870379284
0.341312825054045
0.3525251213843475
0.3646147991069237
0.377389295894352
0.3906498074737125
0.4042047943681575
0.4178844100663918
0.4315540001165751
0.445125727404158
0.45856829624302714
0.471915504404979
0.48527586260392824
0.49883657061808073
0.5128616583695186
0.5277106335325462
0.5438604360273412
0.5619156440640943
0.582620378799652
0.6068634410157898
0.6357259595270699
0.67055924908234
0.7129441724501198
0.7646189644811342
0.8274477755351584
0.9033356134367634
0.9940997892684171
1.1013062432954095
1.226083241222244
1.3689309898364095
1.5295530324565547
1.7067435299463678
1.8983537420597771
2.1013492973931926
2.3119586682439666
2.525894501459334
2.738625897380859
2.9456736011758986
3.1428944358610353
3.3266951487107197
3.4941556024202773
3.6430661209879376
3.771819221492664
3.879107968703142
3.963393719885052
4.022064409788894
4.050165532321794
4.038582773310489
3.9717183927101467
3.825390899939669
3.5676688407200574
3.1689275679433724
2.6295950608606695
2.0212887457145587
1.4900757309110282
1.1621356932575895
1.0331377280054321
1.004124617579601
1.0004100919531778
1.0000392354004168
1.0000037192854114
1.000000350450859
1.0000000328474417
1.0000000030639158
1.0000000002845224
1.0000000000263125
1.0000000000024234
1.000000000000222
1.0000000000000202
1.0000000000000016
1.0
1.0
1.0
1.0
2.5496528074945717
2.328588835582698
1.8774612005111961
1.4694222584034282
1.1589949923343295
0.9280900772326817
0.7567991373268164
0.6302561235606081
0.5370671781028563
0.4686284452044497
0.41847619530287333
0.38172920275711214
0.3546835277464773
0.3345743378353431
0.3194092744007615
0.30781856669846874
0.298907936123635
0.29212948819506457
0.28717966405101647
0.283916032736425
0.28229166263843863
0.28230539175602043
0.2839666670353484
0.2872740692482419
0.2922053057891517
0.2987144177328904
0.30673131207234683
0.3161602800785599
0.3268768971775315
0.3387251159775114
0.351517438036636
0.3650405334671595
0.37906672354299764
0.393369420543864
0.4077395036525657
0.42200015257039486
0.4360188017862888
0.4497159829578474
0.46307165125200755
0.47613097628441103
0.489003336609426
0.5018620973699212
0.5149580267326622
0.5286334260551033
0.5433358858354579
0.5596364818944131
0.5782457943847051
0.6000470809297194
0.6261664648393334
0.6579810052102535
0.6970872692597936
0.7452938921763684
0.8045755950483341
0.8769831045086159
0.964508963594461
1.0689126205536041
1.1915173216071695
1.3330010389160982
1.4932087117028274
1.671017249410926
1.8642866992020408
2.0699131015464336
2.283982386550874
2.502009804935953
2.71923396750568
2.9309378339681
3.1327520964794746
3.320879688274962
3.4922467748355617
3.644555361243776
3.7761656087635007
3.885782749437139
3.9719050301383265
4.031948380991566
4.0609221994826745
4.049524921546795
3.981695774992368
3.8323912956969393
3.568490746354426
3.159620789981316
2.6079792975297087
1.991454149947264
1.463088654142389
1.1469978695008667
1.0283853616498346
1.0033572118763836
1.0003253866777375
1.0000305704957984
1.0000028509206342
1.000000264561934
1.0000000244438962
1.0000000022493798
1.0000000002062195
1.0000000000188396
1.000000000001715
1.000000000000155
1.0000000000000135
1.000000000000001
1.0
1.0
1.0
2.415348152883918
2.1851104049013284
1.7254970991896692
1.3257120883073399
1.0320287749773578
0.8195298643728908
0.6659009342192304
0.5550854015563017
0.4753323572767873
0.41812343808449964
0.3771499180583858
0.34766282668013376
0.3261443457495147
0.3100843670519473
0.29777733805084283
0.2881315716133216
0.28050073881328547
0.27453862990443223
0.2700921113402868
0.26713031073523863
0.26568891810559986
0.26582790775631615
0.2676021796144227
0.2710445528279639
0.2761592088821393
0.2829212968665948
0.2912775907135954
0.3011447800545309
0.3124050549454706
0.32490142826396723
0.3384364555765875
0.3527775726320328
0.36766980791486736
0.3828535600829487
0.3980835139624562
0.41314542341450267
0.4278695062360387
0.44213920331048207
0.45589573810705214
0.46914020484882657
0.4819285592113135
0.49437104941743926
0.5066390481857006
0.5189717912069816
0.5316894416582221
0.5452111216401734
0.5600747407388562
0.5769697904031778
0.5967946981777612
0.6206826976187586
0.6500067692673015
0.686396152393949
0.7317256226255857
0.7880684682534038
0.8576057128782298
0.9424865135618694
1.0446423502119417
1.1655680615954285
1.3060936315119198
1.4661787994426398
1.644762916825388
1.8397015723734442
2.0478146957934937
2.2650467251846713
2.4867219107536958
2.7078631944622935
2.9235391318370763
3.12917548691548
3.320798144880419
3.495213275154707
3.6500601036987113
3.783681499994093
3.8947950972506304
3.981914772248288
4.042432475974688
4.071226686922815
4.058657074487618
3.9879868381872097
3.8330768417276406
3.559534885255645
3.1367347051568815
2.5703420061084996
1.9469863489333217
1.4270080936593434
1.128669360587922
1.0232063333451622
1.0026010498594133
1.0002463030200948
1.0000227681013647
1.0000020923868753
1.0000001915183587
1.000000017466672
1.0000000015876473
1.0000000001438596
1.0000000000129963
1.0000000000011702
1.0000000000001048
1.000000000000009
1.0000000000000007
1.0
1.0
2.2771765153809884
2.0410084476062256
1.5796487660004925
1.1933816092637775
0.9188881715473137
0.7253866022523752
0.5887184074924844
0.49229299149858086
0.4245717611703689
0.37721197114337746
0.34398270716955287
0.32029400642525585
0.30291739103294524
0.289691214098757
0.2792394590306184
0.27074300592053696
0.2637716569629224
0.25815074456823023
0.2538518548455534
0.25092763604868074
0.24947236257822225
0.2495879011697909
0.25135991863922136
0.25484493018117105
0.26006671535812564
0.26701780470834685
0.27566070786608865
0.2859253597466252
0.2977026884052465
0.3108374151263104
0.3251245691875595
0.3403140360680829
0.3561243013750613
0.37226228065885314
0.3884469185995041
0.4044313229193972
0.42001547553222773
0.4350526299436612
0.4494544564141306
0.463189548526567
0.4762773724358105
0.48878673061369615
0.50083526662303
0.5125907082904135
0.5242796374263459
0.5362021243686262
0.5487504409229707
0.5624428929056748
0.5779691137887518
0.5962197000581169
0.6183146411552948
0.6456371729604047
0.6798507306429907
0.7228906920658111
0.7769196574728221
0.8442354690262235
0.9271256914039568
1.0276708479239005
1.1475102892100044
1.287596512739819
1.4479726332977587
1.6276103777868074
1.8243391970691865
2.0348903645344087
2.2550640408477225
2.4800001524043553
2.704522316622848
2.923505737044472
3.132195562619133
3.3264766940752186
3.5030732430856086
3.659590337711766
3.7943711706721155
3.9061473821549244
3.9934268580589496
4.053521890045554
4.081076478221332
4.065945881621431
3.990485217950397
3.8272105630470326
3.5404015071811052
3.0998341384051806
2.5166627028044433
1.8888111148266473
1.38347915877642
1.1084523302850475
1.0180680585375401
1.0019194339107702
1.0001780467448347
1.0000162232446936
1.0000014714845937
1.00000013303028
1.0000000119909012
1.0000000010778163
1.0000000000966272
1.000000000008641
1.0000000000007707
1.0000000000000682
1.0000000000000058
1.0000000000000004
1.0
2.1373112316203873
1.8987130784547221
1.4420721469515234
1.0734023370937358
0.8192947032362738
0.6442111627750887
0.52316140387127
0.4398892506540635
0.3830350440466653
0.3441822759540062
0.31720547974775404
0.2978711724100259
0.28338750407037683
0.2719911371545924
0.2626259556761852
0.2547135225311936
0.24799521823101772
0.242423666345438
0.23806635458370198
0.23503694467688374
0.23346733755250382
0.23348516592642038
0.23519505989012357
0.23866928392930623
0.2439466682217063
0.2510354783300706
0.25991467432892146
0.2705299031601065
0.2827843321080203
0.2965280746926271
0.3115514545204539
0.3275876520036514
0.344325955360862
0.36143974489300146
0.3786194519559183
0.3955911406564886
0.4121258630451058
0.4280487719243228
0.4432455419901964
0.4576586967775571
0.4712824321961876
0.4841583726442463
0.49636880328620225
0.5080353304303614
0.5193224975321555
0.5304457529832116
0.5416876665964488
0.5534297548941423
0.5661852240651872
0.5806286808016614
0.5976359375252446
0.6183261940117695
0.644097551692385
0.6766481612251033
0.7179716040430195
0.7703134348087367
0.836076801293026
0.9176700421690658
1.0172986186834745
1.1367164241541614
1.2769644095438408
1.43813376113093
1.6191935921905105
1.8179175838139052
2.0309302557789426
2.2538810276395296
2.4817317921902147
2.709125013569107
2.9307622650689455
3.1417381778878264
3.3378399101950023
3.515748724542159
3.6730663706373177
3.8081555964697444
3.9197643107783136
4.006369241858534
4.065139085116612
4.090368256883379
4.071224361023938
3.9889000377287545
3.814311460218599
3.510413980848432
3.0482885078795166
2.447004298002852
1.8182653639540864