# vtk DataFile Version 3.0 
shock_diffraction_time_series_311_.vtk
ASCII
DATASET UNSTRUCTURED_GRID
POINTS         10201 double
0.0 0.0 0.0
0.01 0.0 0.0
0.02 0.0 0.0
0.03 0.0 0.0
0.04 0.0 0.0
0.05 0.0 0.0
0.06 0.0 0.0
0.07 0.0 0.0
0.08 0.0 0.0
0.09 0.0 0.0
0.1 0.0 0.0
0.11 0.0 0.0
0.12 0.0 0.0
0.13 0.0 0.0
0.14 0.0 0.0
0.15 0.0 0.0
0.16 0.0 0.0
0.17 0.0 0.0
0.18 0.0 0.0
0.19 0.0 0.0
0.2 0.0 0.0
0.21 0.0 0.0
0.22 0.0 0.0
0.23 0.0 0.0
0.24 0.0 0.0
0.25 0.0 0.0
0.26 0.0 0.0
0.27 0.0 0.0
0.28 0.0 0.0
0.29 0.0 0.0
0.3 0.0 0.0
0.31 0.0 0.0
0.32 0.0 0.0
0.33 0.0 0.0
0.34 0.0 0.0
0.35000000000000003 0.0 0.0
0.36 0.0 0.0
0.37 0.0 0.0
0.38 0.0 0.0
0.39 0.0 0.0
0.4 0.0 0.0
0.41000000000000003 0.0 0.0
0.42 0.0 0.0
0.43 0.0 0.0
0.44 0.0 0.0
0.45 0.0 0.0
0.46 0.0 0.0
0.47000000000000003 0.0 0.0
0.48 0.0 0.0
0.49 0.0 0.0
0.5 0.0 0.0
0.51 0.0 0.0
0.52 0.0 0.0
0.53 0.0 0.0
0.54 0.0 0.0
0.55 0.0 0.0
0.56 0.0 0.0
0.5700000000000001 0.0 0.0
0.58 0.0 0.0
0.59 0.0 0.0
0.6 0.0 0.0
0.61 0.0 0.0
0.62 0.0 0.0
0.63 0.0 0.0
0.64 0.0 0.0
0.65 0.0 0.0
0.66 0.0 0.0
0.67 0.0 0.0
0.68 0.0 0.0
0.6900000000000001 0.0 0.0
0.7000000000000001 0.0 0.0
0.71 0.0 0.0
0.72 0.0 0.0
0.73 0.0 0.0
0.74 0.0 0.0
0.75 0.0 0.0
0.76 0.0 0.0
0.77 0.0 0.0
0.78 0.0 0.0
0.79 0.0 0.0
0.8 0.0 0.0
0.81 0.0 0.0
0.8200000000000001 0.0 0.0
0.8300000000000001 0.0 0.0
0.84 0.0 0.0
0.85 0.0 0.0
0.86 0.0 0.0
0.87 0.0 0.0
0.88 0.0 0.0
0.89 0.0 0.0
0.9 0.0 0.0
0.91 0.0 0.0
0.92 0.0 0.0
0.93 0.0 0.0
0.9400000000000001 0.0 0.0
0.9500000000000001 0.0 0.0
0.96 0.0 0.0
0.97 0.0 0.0
0.98 0.0 0.0
0.99 0.0 0.0
1.0 0.0 0.0
0.0 0.01 0.0
0.01 0.01 0.0
0.02 0.01 0.0
0.03 0.01 0.0
0.04 0.01 0.0
0.05 0.01 0.0
0.06 0.01 0.0
0.07 0.01 0.0
0.08 0.01 0.0
0.09 0.01 0.0
0.1 0.01 0.0
0.11 0.01 0.0
0.12 0.01 0.0
0.13 0.01 0.0
0.14 0.01 0.0
0.15 0.01 0.0
0.16 0.01 0.0
0.17 0.01 0.0
0.18 0.01 0.0
0.19 0.01 0.0
0.2 0.01 0.0
0.21 0.01 0.0
0.22 0.01 0.0
0.23 0.01 0.0
0.24 0.01 0.0
0.25 0.01 0.0
0.26 0.01 0.0
0.27 0.01 0.0
0.28 0.01 0.0
0.29 0.01 0.0
0.3 0.01 0.0
0.31 0.01 0.0
0.32 0.01 0.0
0.33 0.01 0.0
0.34 0.01 0.0
0.35000000000000003 0.01 0.0
0.36 0.01 0.0
0.37 0.01 0.0
0.38 0.01 0.0
0.39 0.01 0.0
0.4 0.01 0.0
0.41000000000000003 0.01 0.0
0.42 0.01 0.0
0.43 0.01 0.0
0.44 0.01 0.0
0.45 0.01 0.0
0.46 0.01 0.0
0.47000000000000003 0.01 0.0
0.48 0.01 0.0
0.49 0.01 0.0
0.5 0.01 0.0
0.51 0.01 0.0
0.52 0.01 0.0
0.53 0.01 0.0
0.54 0.01 0.0
0.55 0.01 0.0
0.56 0.01 0.0
0.5700000000000001 0.01 0.0
0.58 0.01 0.0
0.59 0.01 0.0
0.6 0.01 0.0
0.61 0.01 0.0
0.62 0.01 0.0
0.63 0.01 0.0
0.64 0.01 0.0
0.65 0.01 0.0
0.66 0.01 0.0
0.67 0.01 0.0
0.68 0.01 0.0
0.6900000000000001 0.01 0.0
0.7000000000000001 0.01 0.0
0.71 0.01 0.0
0.72 0.01 0.0
0.73 0.01 0.0
0.74 0.01 0.0
0.75 0.01 0.0
0.76 0.01 0.0
0.77 0.01 0.0
0.78 0.01 0.0
0.79 0.01 0.0
0.8 0.01 0.0
0.81 0.01 0.0
0.8200000000000001 0.01 0.0
0.8300000000000001 0.01 0.0
0.84 0.01 0.0
0.85 0.01 0.0
0.86 0.01 0.0
0.87 0.01 0.0
0.88 0.01 0.0
0.89 0.01 0.0
0.9 0.01 0.0
0.91 0.01 0.0
0.92 0.01 0.0
0.93 0.01 0.0
0.9400000000000001 0.01 0.0
0.9500000000000001 0.01 0.0
0.96 0.01 0.0
0.97 0.01 0.0
0.98 0.01 0.0
0.99 0.01 0.0
1.0 0.01 0.0
0.0 0.02 0.0
0.01 0.02 0.0
0.02 0.02 0.0
0.03 0.02 0.0
0.04 0.02 0.0
0.05 0.02 0.0
0.06 0.02 0.0
0.07 0.02 0.0
0.08 0.02 0.0
0.09 0.02 0.0
0.1 0.02 0.0
0.11 0.02 0.0
0.12 0.02 0.0
0.13 0.02 0.0
0.14 0.02 0.0
0.15 0.02 0.0
0.16 0.02 0.0
0.17 0.02 0.0
0.18 0.02 0.0
0.19 0.02 0.0
0.2 0.02 0.0
0.21 0.02 0.0
0.22 0.02 0.0
0.23 0.02 0.0
0.24 0.02 0.0
0.25 0.02 0.0
0.26 0.02 0.0
0.27 0.02 0.0
0.28 0.02 0.0
0.29 0.02 0.0
0.3 0.02 0.0
0.31 0.02 0.0
0.32 0.02 0.0
0.33 0.02 0.0
0.34 0.02 0.0
0.35000000000000003 0.02 0.0
0.36 0.02 0.0
0.37 0.02 0.0
0.38 0.02 0.0
0.39 0.02 0.0
0.4 0.02 0.0
0.41000000000000003 0.02 0.0
0.42 0.02 0.0
0.43 0.02 0.0
0.44 0.02 0.0
0.45 0.02 0.0
0.46 0.02 0.0
0.47000000000000003 0.02 0.0
0.48 0.02 0.0
0.49 0.02 0.0
0.5 0.02 0.0
0.51 0.02 0.0
0.52 0.02 0.0
0.53 0.02 0.0
0.54 0.02 0.0
0.55 0.02 0.0
0.56 0.02 0.0
0.5700000000000001 0.02 0.0
0.58 0.02 0.0
0.59 0.02 0.0
0.6 0.02 0.0
0.61 0.02 0.0
0.62 0.02 0.0
0.63 0.02 0.0
0.64 0.02 0.0
0.65 0.02 0.0
0.66 0.02 0.0
0.67 0.02 0.0
0.68 0.02 0.0
0.6900000000000001 0.02 0.0
0.7000000000000001 0.02 0.0
0.71 0.02 0.0
0.72 0.02 0.0
0.73 0.02 0.0
0.74 0.02 0.0
0.75 0.02 0.0
0.76 0.02 0.0
0.77 0.02 0.0
0.78 0.02 0.0
0.79 0.02 0.0
0.8 0.02 0.0
0.81 0.02 0.0
0.8200000000000001 0.02 0.0
0.8300000000000001 0.02 0.0
0.84 0.02 0.0
0.85 0.02 0.0
0.86 0.02 0.0
0.87 0.02 0.0
0.88 0.02 0.0
0.89 0.02 0.0
0.9 0.02 0.0
0.91 0.02 0.0
0.92 0.02 0.0
0.93 0.02 0.0
0.9400000000000001 0.02 0.0
0.9500000000000001 0.02 0.0
0.96 0.02 0.0
0.97 0.02 0.0
0.98 0.02 0.0
0.99 0.02 0.0
1.0 0.02 0.0
0.0 0.03 0.0
0.01 0.03 0.0
0.02 0.03 0.0
0.03 0.03 0.0
0.04 0.03 0.0
0.05 0.03 0.0
0.06 0.03 0.0
0.07 0.03 0.0
0.08 0.03 0.0
0.09 0.03 0.0
0.1 0.03 0.0
0.11 0.03 0.0
0.12 0.03 0.0
0.13 0.03 0.0
0.14 0.03 0.0
0.15 0.03 0.0
0.16 0.03 0.0
0.17 0.03 0.0
0.18 0.03 0.0
0.19 0.03 0.0
0.2 0.03 0.0
0.21 0.03 0.0
0.22 0.03 0.0
0.23 0.03 0.0
0.24 0.03 0.0
0.25 0.03 0.0
0.26 0.03 0.0
0.27 0.03 0.0
0.28 0.03 0.0
0.29 0.03 0.0
0.3 0.03 0.0
0.31 0.03 0.0
0.32 0.03 0.0
0.33 0.03 0.0
0.34 0.03 0.0
0.35000000000000003 0.03 0.0
0.36 0.03 0.0
0.37 0.03 0.0
0.38 0.03 0.0
0.39 0.03 0.0
0.4 0.03 0.0
0.41000000000000003 0.03 0.0
0.42 0.03 0.0
0.43 0.03 0.0
0.44 0.03 0.0
0.45 0.03 0.0
0.46 0.03 0.0
0.47000000000000003 0.03 0.0
0.48 0.03 0.0
0.49 0.03 0.0
0.5 0.03 0.0
0.51 0.03 0.0
0.52 0.03 0.0
0.53 0.03 0.0
0.54 0.03 0.0
0.55 0.03 0.0
0.56 0.03 0.0
0.5700000000000001 0.03 0.0
0.58 0.03 0.0
0.59 0.03 0.0
0.6 0.03 0.0
0.61 0.03 0.0
0.62 0.03 0.0
0.63 0.03 0.0
0.64 0.03 0.0
0.65 0.03 0.0
0.66 0.03 0.0
0.67 0.03 0.0
0.68 0.03 0.0
0.6900000000000001 0.03 0.0
0.7000000000000001 0.03 0.0
0.71 0.03 0.0
0.72 0.03 0.0
0.73 0.03 0.0
0.74 0.03 0.0
0.75 0.03 0.0
0.76 0.03 0.0
0.77 0.03 0.0
0.78 0.03 0.0
0.79 0.03 0.0
0.8 0.03 0.0
0.81 0.03 0.0
0.8200000000000001 0.03 0.0
0.8300000000000001 0.03 0.0
0.84 0.03 0.0
0.85 0.03 0.0
0.86 0.03 0.0
0.87 0.03 0.0
0.88 0.03 0.0
0.89 0.03 0.0
0.9 0.03 0.0
0.91 0.03 0.0
0.92 0.03 0.0
0.93 0.03 0.0
0.9400000000000001 0.03 0.0
0.9500000000000001 0.03 0.0
0.96 0.03 0.0
0.97 0.03 0.0
0.98 0.03 0.0
0.99 0.03 0.0
1.0 0.03 0.0
0.0 0.04 0.0
0.01 0.04 0.0
0.02 0.04 0.0
0.03 0.04 0.0
0.04 0.04 0.0
0.05 0.04 0.0
0.06 0.04 0.0
0.07 0.04 0.0
0.08 0.04 0.0
0.09 0.04 0.0
0.1 0.04 0.0
0.11 0.04 0.0
0.12 0.04 0.0
0.13 0.04 0.0
0.14 0.04 0.0
0.15 0.04 0.0
0.16 0.04 0.0
0.17 0.04 0.0
0.18 0.04 0.0
0.19 0.04 0.0
0.2 0.04 0.0
0.21 0.04 0.0
0.22 0.04 0.0
0.23 0.04 0.0
0.24 0.04 0.0
0.25 0.04 0.0
0.26 0.04 0.0
0.27 0.04 0.0
0.28 0.04 0.0
0.29 0.04 0.0
0.3 0.04 0.0
0.31 0.04 0.0
0.32 0.04 0.0
0.33 0.04 0.0
0.34 0.04 0.0
0.35000000000000003 0.04 0.0
0.36 0.04 0.0
0.37 0.04 0.0
0.38 0.04 0.0
0.39 0.04 0.0
0.4 0.04 0.0
0.41000000000000003 0.04 0.0
0.42 0.04 0.0
0.43 0.04 0.0
0.44 0.04 0.0
0.45 0.04 0.0
0.46 0.04 0.0
0.47000000000000003 0.04 0.0
0.48 0.04 0.0
0.49 0.04 0.0
0.5 0.04 0.0
0.51 0.04 0.0
0.52 0.04 0.0
0.53 0.04 0.0
0.54 0.04 0.0
0.55 0.04 0.0
0.56 0.04 0.0
0.5700000000000001 0.04 0.0
0.58 0.04 0.0
0.59 0.04 0.0
0.6 0.04 0.0
0.61 0.04 0.0
0.62 0.04 0.0
0.63 0.04 0.0
0.64 0.04 0.0
0.65 0.04 0.0
0.66 0.04 0.0
0.67 0.04 0.0
0.68 0.04 0.0
0.6900000000000001 0.04 0.0
0.7000000000000001 0.04 0.0
0.71 0.04 0.0
0.72 0.04 0.0
0.73 0.04 0.0
0.74 0.04 0.0
0.75 0.04 0.0
0.76 0.04 0.0
0.77 0.04 0.0
0.78 0.04 0.0
0.79 0.04 0.0
0.8 0.04 0.0
0.81 0.04 0.0
0.8200000000000001 0.04 0.0
0.8300000000000001 0.04 0.0
0.84 0.04 0.0
0.85 0.04 0.0
0.86 0.04 0.0
0.87 0.04 0.0
0.88 0.04 0.0
0.89 0.04 0.0
0.9 0.04 0.0
0.91 0.04 0.0
0.92 0.04 0.0
0.93 0.04 0.0
0.9400000000000001 0.04 0.0
0.9500000000000001 0.04 0.0
0.96 0.04 0.0
0.97 0.04 0.0
0.98 0.04 0.0
0.99 0.04 0.0
1.0 0.04 0.0
0.0 0.05 0.0
0.01 0.05 0.0
0.02 0.05 0.0
0.03 0.05 0.0
0.04 0.05 0.0
0.05 0.05 0.0
0.06 0.05 0.0
0.07 0.05 0.0
0.08 0.05 0.0
0.09 0.05 0.0
0.1 0.05 0.0
0.11 0.05 0.0
0.12 0.05 0.0
0.13 0.05 0.0
0.14 0.05 0.0
0.15 0.05 0.0
0.16 0.05 0.0
0.17 0.05 0.0
0.18 0.05 0.0
0.19 0.05 0.0
0.2 0.05 0.0
0.21 0.05 0.0
0.22 0.05 0.0
0.23 0.05 0.0
0.24 0.05 0.0
0.25 0.05 0.0
0.26 0.05 0.0
0.27 0.05 0.0
0.28 0.05 0.0
0.29 0.05 0.0
0.3 0.05 0.0
0.31 0.05 0.0
0.32 0.05 0.0
0.33 0.05 0.0
0.34 0.05 0.0
0.35000000000000003 0.05 0.0
0.36 0.05 0.0
0.37 0.05 0.0
0.38 0.05 0.0
0.39 0.05 0.0
0.4 0.05 0.0
0.41000000000000003 0.05 0.0
0.42 0.05 0.0
0.43 0.05 0.0
0.44 0.05 0.0
0.45 0.05 0.0
0.46 0.05 0.0
0.47000000000000003 0.05 0.0
0.48 0.05 0.0
0.49 0.05 0.0
0.5 0.05 0.0
0.51 0.05 0.0
0.52 0.05 0.0
0.53 0.05 0.0
0.54 0.05 0.0
0.55 0.05 0.0
0.56 0.05 0.0
0.5700000000000001 0.05 0.0
0.58 0.05 0.0
0.59 0.05 0.0
0.6 0.05 0.0
0.61 0.05 0.0
0.62 0.05 0.0
0.63 0.05 0.0
0.64 0.05 0.0
0.65 0.05 0.0
0.66 0.05 0.0
0.67 0.05 0.0
0.68 0.05 0.0
0.6900000000000001 0.05 0.0
0.7000000000000001 0.05 0.0
0.71 0.05 0.0
0.72 0.05 0.0
0.73 0.05 0.0
0.74 0.05 0.0
0.75 0.05 0.0
0.76 0.05 0.0
0.77 0.05 0.0
0.78 0.05 0.0
0.79 0.05 0.0
0.8 0.05 0.0
0.81 0.05 0.0
0.8200000000000001 0.05 0.0
0.8300000000000001 0.05 0.0
0.84 0.05 0.0
0.85 0.05 0.0
0.86 0.05 0.0
0.87 0.05 0.0
0.88 0.05 0.0
0.89 0.05 0.0
0.9 0.05 0.0
0.91 0.05 0.0
0.92 0.05 0.0
0.93 0.05 0.0
0.9400000000000001 0.05 0.0
0.9500000000000001 0.05 0.0
0.96 0.05 0.0
0.97 0.05 0.0
0.98 0.05 0.0
0.99 0.05 0.0
1.0 0.05 0.0
0.0 0.06 0.0
0.01 0.06 0.0
0.02 0.06 0.0
0.03 0.06 0.0
0.04 0.06 0.0
0.05 0.06 0.0
0.06 0.06 0.0
0.07 0.06 0.0
0.08 0.06 0.0
0.09 0.06 0.0
0.1 0.06 0.0
0.11 0.06 0.0
0.12 0.06 0.0
0.13 0.06 0.0
0.14 0.06 0.0
0.15 0.06 0.0
0.16 0.06 0.0
0.17 0.06 0.0
0.18 0.06 0.0
0.19 0.06 0.0
0.2 0.06 0.0
0.21 0.06 0.0
0.22 0.06 0.0
0.23 0.06 0.0
0.24 0.06 0.0
0.25 0.06 0.0
0.26 0.06 0.0
0.27 0.06 0.0
0.28 0.06 0.0
0.29 0.06 0.0
0.3 0.06 0.0
0.31 0.06 0.0
0.32 0.06 0.0
0.33 0.06 0.0
0.34 0.06 0.0
0.35000000000000003 0.06 0.0
0.36 0.06 0.0
0.37 0.06 0.0
0.38 0.06 0.0
0.39 0.06 0.0
0.4 0.06 0.0
0.41000000000000003 0.06 0.0
0.42 0.06 0.0
0.43 0.06 0.0
0.44 0.06 0.0
0.45 0.06 0.0
0.46 0.06 0.0
[...]
POINT_DATA  10201
FIELD  FlowField  4
Density    1 10201  double
1.0001703196287233
1.0001935563226994
1.000262527147929
1.0003854222961155
1.0005869619831664
1.0009051222468084
1.001390149057762
1.0021014605317329
1.0030991997581498
1.004428755035656
1.0060989599324368
1.0080586851922027
1.0101810154086035
1.0122656551961775
1.0140649697222073
1.0153301444691594
1.0158658174343662
1.0155769255398686
1.0144932555473898
1.0127642827413486
1.0106260174879145
1.0083492129897484
1.0061831176499658
1.00431055594418
1.0028263343517536
1.0017418033331678
1.0010084838293163
1.0005483885228244
1.0002799776536344
1.0001341617225088
1.000060317259446
1.0000254324527187
1.000010052984834
1.0000037239729131
1.0000012924192854
1.0000004201659087
1.0000001279582915
1.000000036513288
1.0000000097676232
1.000000002451538
1.0000000005779763
1.0000000001281972
1.000000000026803
1.000000000005294
1.0000000000009899
1.0000000000001759
1.0000000000000293
1.0000000000000044
1.0000000000000004
1.0
1.0
1.0
1.0
1.0
1.0
1.0
1.0
1.0
1.0
1.0
1.0
1.0
1.0
1.0
1.0
1.0
1.0
1.0
1.0
1.0
1.0
1.0
1.0
1.0
1.0
1.0
1.0
1.0
1.0
1.0
1.0
1.0
1.0
1.0
1.0
1.0
1.0
1.0
1.0
1.0
1.0
1.0
1.0
1.0
1.0
1.0
1.0
1.0
1.0
1.0
1.0
1.0006024892917131
1.0006842768102615
1.00092488968503
1.0013511092191503
1.0020500838340782
1.0031547378108898
1.0048383503427598
1.0072996417199718
1.0107264751484284
1.015236061993971
1.0208029224554092
1.0272011801916858
1.033990397439862
1.0405595794163498
1.0462201521578922
1.050321520557334
1.052361297704703
1.052068724070395
1.0494486473196072
1.0447819217303531
1.0385846218392714
1.031531467708274
1.0243504697998635
1.0177028236352732
1.0120739518175026
1.007706476443209
1.0045978819481687
1.0025641065359265
1.001337379564875
1.0006528881727295
1.0002984877773922
1.0001278275645766
1.0000512773064358
1.000019264259818
1.0000067765533283
1.000002231604106
1.000000687947589
1.000000198557046
1.000000053675859
1.000000013600101
1.0000000032332192
1.0000000007222534
1.0000000001518852
1.000000000030137
1.000000000005657
1.0000000000010076
1.0000000000001705
1.0000000000000273
1.000000000000004
1.0000000000000004
1.0
1.0
1.0
1.0
1.0
1.0
1.0
1.0
1.0
1.0
1.0
1.0
1.0
1.0
1.0
1.0
1.0
1.0
1.0
1.0
1.0
1.0
1.0
1.0
1.0
1.0
1.0
1.0
1.0
1.0
1.0
1.0
1.0
1.0
1.0
1.0
1.0
1.0
1.0
1.0
1.0
1.0
1.0
1.0
1.0
1.0
1.0
1.0
1.0
1.0
1.0
1.003640264604857
1.0041245349265728
1.0055260197652514
1.0079630954766814
1.0118888189538293
1.017936458989869
1.0268124507858967
1.0391384922278468
1.0552414866423354
1.0749610369673617
1.0975548313542693
1.1217402711030877
1.1458560142250038
1.1680925427214477
1.1867234952933137
1.2002870275994857
1.2077074613824514
1.208366791554735
1.2021393157217124
1.1894005667089442
1.171015690607354
1.148303879731913
1.1229617320479188
1.0969230221917368
1.072145082646727
1.0503368024093749
1.0326782596894506
1.0196190863443015
1.0108571222784568
1.0055411265951952
1.0026174326929227
1.0011491217068362
1.000470396087659
1.000179876191937
1.0000643078878004
1.0000215012018414
1.0000067237363939
1.0000019668150961
1.000000538338552
1.000000137956187
1.0000000331303756
1.0000000074660405
1.0000000015816153
1.0000000003156588
1.0000000000595097
1.0000000000106295
1.0000000000018046
1.000000000000292
1.0000000000000446
1.0000000000000062
1.0000000000000007
1.0
1.0
1.0
1.0
1.0
1.0
1.0
1.0
1.0
1.0
1.0
1.0
1.0
1.0
1.0
1.0
1.0
1.0
1.0
1.0
1.0
1.0
1.0
1.0
1.0
1.0
1.0
1.0
1.0
1.0
1.0
1.0
1.0
1.0
1.0
1.0
1.0
1.0
1.0
1.0
1.0
1.0
1.0
1.0
1.0
1.0
1.0
1.0
1.0
1.0
1.0208528013511131
1.0233929152290613
1.0304822709659762
1.0421264510647656
1.059619482019068
1.0843375715892685
1.1171560849813558
1.1580690644838152
1.2060079406850086
1.258927315140393
1.314106675695407
1.3685465843359264
1.419337530316453
1.4639268595770731
1.500254093090428
1.5267650346920747
1.5423602822868556
1.5463369065319867
1.538356700227078
1.518455028993472
1.487090862020456
1.4452359180186405
1.3944865702212843
1.3371529050647977
1.2762605214555987
1.2153988334309083
1.1583705033497205
1.1086516525561918
1.0687575218735343
1.0396934744283177
1.0207397472278634
1.0097931442388293
1.0042048803858667
1.001658694145335
1.000606249647051
1.0002063161388877
1.0000655229659097
1.0000194383773962
1.0000053898069667
1.0000013976104336
1.000000339205843
1.0000000771493414
1.000000016470677
1.0000000033076732
1.0000000006264538
1.0000000001122318
1.0000000000190834
1.0000000000030904
1.000000000000478
1.0000000000000706
1.00000000000001
1.000000000000001
1.0
1.0
1.0
1.0
1.0
1.0
1.0
1.0
1.0
1.0
1.0
1.0
1.0
1.0
1.0
1.0
1.0
1.0
1.0
1.0
1.0
1.0
1.0
1.0
1.0
1.0
1.0
1.0
1.0
1.0
1.0
1.0
1.0
1.0
1.0
1.0
1.0
1.0
1.0
1.0
1.0
1.0
1.0
1.0
1.0
1.0
1.0
1.0
1.0
1.0975589579018177
1.1067808605650162
1.1312263164928094
1.1680027121374512
1.2178280529524144
1.2807038281034853
1.3550327714544708
1.4377684186211008
1.5249411615639277
1.612342667382508
1.6961286923137502
1.7731950113481072
1.8412930106948386
1.8989388110386813
1.9452225298619523
1.9795836120759662
2.0016000170206145
2.010845585266365
2.006828987782112
1.9890054668225114
1.9568407017419815
1.909929847875473
1.848198708919916
1.7721813449447228
1.683336009037902
1.5843483201845898
1.4793301898275246
1.37376983493852
1.2740576303752742
1.186505343524336
1.1160366257787118
1.0649519921392732
1.032270295122177
1.014154890382286
1.005523178580431
1.0019511186780092
1.0006341628854012
1.000191352142334
1.0000538120726086
1.0000141284989281
1.0000034671353735
1.0000007962084405
1.0000001713729088
1.000000034641471
1.0000000065930068
1.0000000011849528
1.0000000002017995
1.000000000032684
1.0000000000050533
1.0000000000007483
1.0000000000001064
1.000000000000014
1.0000000000000016
1.0000000000000002
1.0
1.0
1.0
1.0
1.0
1.0
1.0
1.0
1.0
1.0
1.0
1.0
1.0
1.0
1.0
1.0
1.0
1.0
1.0
1.0
1.0
1.0
1.0
1.0
1.0
1.0
1.0
1.0
1.0
1.0
1.0
1.0
1.0
1.0
1.0
1.0
1.0
1.0
1.0
1.0
1.0
1.0
1.0
1.0
1.0
1.0
1.0
1.3212808641272331
1.3411807202922337
1.3918953301333534
1.46260025078393
1.5496999648392031
1.6488912666426983
1.7547218493120174
1.8615480952704855
1.9644359008770769
2.0597015049822196
2.1450608823122357
2.21948245376883
2.282863241463312
2.335633090786823
2.3783980457099725
2.4116724945603787
2.4356892485647856
2.4502956569890486
2.4549318480502316
2.4486654823186553
2.430231617369003
2.398083672716893
2.3505154046805425
2.2858556511785113
2.202745670738257
2.1005395388818524
1.9798341591811504
1.8430774183272418
1.695111278034493
1.54339924784545
1.397595206662642
1.2680831322317183
1.1635317492405324
1.088394622145103
1.0415315730511634
1.0168047587153752
1.0059128599265725
1.0018576194750737
1.0005341673321966
1.0001423921228458
1.0000353687169503
1.0000082057164081
1.0000017813919149
1.0000003625923757
1.0000000693683389
1.0000000125103579
1.0000000021341462
1.0000000003456675
1.0000000000533704
1.0000000000078866
1.0000000000011193
1.0000000000001528
1.0000000000000198
1.0000000000000024
1.0000000000000002
1.0
1.0
1.0
1.0
1.0
1.0
1.0
1.0
1.0
1.0
1.0
1.0
1.0
1.0
1.0
1.0
1.0
1.0
1.0
1.0
1.0
1.0
1.0
1.0
1.0
1.0
1.0
1.0
1.0
1.0
1.0
1.0
1.0
1.0
1.0
1.0
1.0
1.0
1.0
1.0
1.0
1.0
1.0
1.0
1.0
1.0
1.7400959570429004
1.7653871870745792
1.8289332035171735
1.913638670710697
2.010683719013768
2.112377848162831
2.21213700941182
2.305026986921211
2.388044612105033
2.4599724402176673
2.5209829067427654
2.572161300507819
2.6150472539270995
2.6512594643996223
2.6821884526431066
2.708793455000197
2.7315202224965454
2.750274648382538
2.764448052230821
2.772976695990815
2.7743699663020194
2.766727264268563
2.747770371019203
2.7148694841903827
2.665113576238145
2.595471311898057
2.503090942673345
2.3858020616268787
2.2428756578418785
2.0760364815916565
1.8905481257110415
1.6959366915919047
1.5057075866416043
1.3353845948325453
1.1985466915909297
1.1022708020867649
1.0447164211959645
1.0164039836304088
1.0051277916180692
1.001419420287522
1.0003593344059993
1.0000844030874472
1.0000184964480554
1.000003792812942
1.000000729646044
1.0000001320760838
1.000000022572717
1.0000000036564225
1.0000000005636753
1.0000000000830498
1.000000000011743
1.0000000000015994
1.00000000000021
1.0000000000000262
1.000000000000003
1.0000000000000004
1.0
1.0
1.0
1.0
1.0
1.0
1.0
1.0
1.0
1.0
1.0
1.0
1.0
1.0
1.0
1.0
1.0
1.0
1.0
1.0
1.0
1.0
1.0
1.0
1.0
1.0
1.0
1.0
1.0
1.0
1.0
1.0
1.0
1.0
1.0
1.0
1.0
1.0
1.0
1.0
1.0
1.0
1.0
1.0
1.0
2.278920476061467
2.295937756742733
2.340852161453844
2.4019742117006846
2.469234302206877
2.5351623494825533
2.5950267735307557
2.646307471150116
2.688338636932806
2.7218206092280854
2.748305339596581
2.7697420667408164
2.788122297433266
2.805279848930486
2.822670822973301
2.8411999381404964
2.861226131812267
2.882583875519095
2.904620876599496
2.926255707413546
2.946032378353161
2.962163646123537
2.972507816955069
2.974504280553142
2.965135944045408
2.940907866011525
2.8978666959831463
2.831713927489095
2.738096079122206
2.613189062773854
2.4547021886157374
2.263376085937163
2.044812259174317
1.810955865792034
1.5800469301190994
1.3738107997842306
1.2112907170785518
1.1015492478870597
1.0402916206866206
1.0130654301296702
1.0035635472745132
1.0008621693665263
1.0001916132489035
1.0000396372662972
1.0000076719648074
1.000001394317044
1.0000002387857339
1.0000000386855072
1.000000005954241
1.000000000874509
1.0000000001231064
1.0000000000166804
1.0000000000021836
1.0000000000002767
1.000000000000034
1.000000000000004
1.0000000000000004
1.0
1.0
1.0
1.0
1.0
1.0
1.0
1.0
1.0
1.0
1.0
1.0
1.0
1.0
1.0
1.0
1.0
1.0
1.0
1.0
1.0
1.0
1.0
1.0
1.0
1.0
1.0
1.0
1.0
1.0
1.0
1.0
1.0
1.0
1.0
1.0
1.0
1.0
1.0
1.0
1.0
1.0
1.0
1.0
2.7988793117885695
2.796008965376899
2.7966654719488395
2.8066173618151224
2.819206691958973
2.829786945574374
2.836246770925565
2.8379959826401704
2.8355715748496833
2.830260927364744
2.823747263429375
2.817812768453138
2.814138700477398
2.814266139788992
2.81940185668985
2.8302279776179233
2.8469571801493894
2.8693583819121504
2.8967721584142865
2.9281392259799772
2.962107411819609
2.9971167585820213
3.03133832979081
3.0625955055450262
3.088310749029585
3.1054371589753016
3.1103795020694136
3.09891942932789
3.06617441195501
3.0066505861092305
2.9145052010825574
2.784210155696925
2.6118544689774237
2.397260038690015
2.1467869084673814
1.8758064562450536
1.6087648687150795
1.3747188522828104
1.197671017066908
1.0860957482077958
1.0299772006695147
1.0083453565958562
1.0019581296167517
1.0004128545264233
1.0000805993092092
1.0000147178282879
1.000002526394634
1.0000004094021449
1.0000000629090506
1.000000009208738
1.000000001290142
1.0000000001737748
1.000000000022598
1.0000000000028477
1.0000000000003486
1.0000000000000413
1.0000000000000044
1.0000000000000004
1.0
1.0
1.0
1.0
1.0
1.0
1.0
1.0
1.0
1.0
1.0
1.0
1.0
1.0
1.0
1.0
1.0
1.0
1.0
1.0
1.0
1.0
1.0
1.0
1.0
1.0
1.0
1.0
1.0
1.0
1.0
1.0
1.0
1.0
1.0
1.0
1.0
1.0
1.0
1.0
1.0
1.0
1.0
3.203076433804335
3.1759841492982246
3.1232990344031792
3.073655341994085
3.0260898579139703
2.979578779683756
2.9342209980610425
2.890401814240352
2.8488217903597572
2.81046230668831
2.776468521340443
2.748008986220106
2.726194173402712
2.712123516782387
2.7066838251939167
2.710343076817726
2.723221300969347
2.745093370025621
2.775360883025992
2.813040055548966
2.856895654126611
2.9055649683715337
2.957493644588898
3.0108637127825717
3.0635534259748702
3.1130784335381048
3.1565123829303
3.190388458158729
3.210583096072412
3.2121894589711735
3.1894084871457946
3.1355320828725213
3.043178749391578
2.90507363022075
2.715778799007154
2.4746913941102617
2.1901547184112964
1.883022348485638
1.5861647271145736
1.3366317221099633
1.1606946049557658
1.0610446468762826
1.0179277461722889
1.0041820623388582
1.0008419009510698
1.0001551986367885
1.0000267303907464
1.0000043337976385
1.0000006648246558
1.0000000969757246
1.0000000135171163
1.0000000018090953
1.0000000002335363
1.0000000000291966
1.0000000000035472
1.0000000000004192
1.000000000000048
1.0000000000000049
1.0000000000000004
1.0
1.0
1.0
1.0
1.0
1.0
1.0
1.0
1.0
1.0
1.0
1.0
1.0
1.0
1.0
1.0
1.0
1.0
1.0
1.0
1.0
1.0
1.0
1.0
1.0
1.0
1.0
1.0
1.0
1.0
1.0
1.0
1.0
1.0
1.0
1.0
1.0
1.0
1.0
1.0
1.0
1.0
3.4630674085350464
3.412620466975357
3.3090286034656478
3.203835576708656
3.1018331017312915
3.005191129823002
2.9156290837131222
2.8339206654843676
2.7604502488336475
2.6955588920109936
2.639653474265101
2.59319674694719
2.5567031301724095
2.5308026122309526
2.516064138428034
2.5128021704118813
2.5211153096909555
2.540862303784816
2.5715896055081457
2.6124767738497416
2.662430713389316
2.7202394067327553
2.784562397832961
2.853861102688315
2.926365619369733
3.000030658729745
3.0724748790869754
3.1409070314250447
3.2020355606689113
3.251951389656291
3.2859728796381096
3.298455412682106
3.282599334180685
3.230355216466054
3.132657540917902
2.9804381757353147
2.767062107685969
2.4926742407304934
2.170056410205315
1.8289593768662935
1.5132082741933301
1.266379389005096
1.1104325227189997
1.034888193290326
1.008325084835783
1.0016194299005496
1.0002823848435318
1.0000458787920214
1.0000070277064885
1.0000010213331167
1.000000141587139
1.0000000188203702
1.0000000024103906
1.0000000002987535
1.0000000000359734
1.0000000000042217
1.000000000000484
1.000000000000054
1.0000000000000053
1.0000000000000004
1.0
1.0
1.0
1.0
1.0
1.0
1.0
1.0
1.0
1.0
1.0
1.0
1.0
1.0
1.0
1.0
1.0
1.0
1.0
1.0
1.0
1.0
1.0
1.0
1.0
1.0
1.0
1.0
1.0
1.0
1.0
1.0
1.0
1.0
1.0
1.0
1.0
1.0
1.0
1.0
1.0
3.593670517457766
3.522402920365815
3.37391236661246
3.220984815862219
3.073461515017616
2.9356804633137723
2.8103851602364713
2.6984374946675542
2.5997676941357755
2.5140295744027905
2.4409011623305545
2.3801847856622174
2.331846794400823
2.2960465221930373
2.2730317373868347
2.2629987516313053
2.266061265838656
2.2822040719431644
2.311184903943715
2.3524414384682624
2.40508896637557
2.4680572150224647
2.540182994315087
2.620172379395829
2.7065536911005896
2.797633349019513
2.891439132951898
2.9856610004923083
3.0775934432075465
3.164069937443302
3.241369337963511
3.3050725159959966
3.349852371353706
3.369197164355863
3.355113151995211
3.2979534557621837
3.186729207273086
3.0106168290766395
2.7626380414681524
2.4460998095085027
2.0825137426638163
1.7151437612949856
1.3997094005673392
1.1796009883399772
1.0613170981922613
1.015306250600354
1.0029266284331506
1.0004844054769613
1.0000742820515174
1.0000107574413382
1.0000014827171577
1.0000001956443814
1.0000000248442522
1.0000000030507046
1.0000000003637521
1.0000000000422675
1.000000000004801
1.0000000000005342
1.0000000000000582
1.0000000000000058
1.0000000000000004
1.0
1.0
1.0
1.0
1.0
1.0
1.0
1.0
1.0
1.0
1.0
1.0
1.0
1.0
1.0
1.0
1.0
1.0
1.0
1.0
1.0
1.0
1.0
1.0
1.0
1.0
1.0
1.0
1.0
1.0
1.0
1.0
1.0
1.0
1.0
1.0
1.0
1.0
1.0
1.0
3.6252527450450875
3.53531235992442
3.346871962542442
3.152805809564478
2.967666473617565
2.7968168626738654
2.6433357637870296
2.507869599160592
2.38980976205177
2.2881426289847555
2.2018786915673503
2.130227973124384
2.072657530707598
2.0288811771125017
1.9988074490057333
1.9824777428478646
1.9799993135056835
1.9914665786126862
2.0168585975202573
2.055923716547946
2.1080874674204746
2.1724833629117293
2.2481104272187005
2.3339121771642786
2.428729336600523
2.5312299428491976
2.639833104397453
2.752636085925791
2.8673608965899167
2.981319739590116
3.091381873093133
3.193917088671528
3.2846884280876893
3.3586642116326604
3.40972435462209
3.430262427520206
3.410758361694788
3.33956346957668
3.203496310760259
2.990391802211628
2.694970149750766
2.3283324629278734
1.9272387391338737
1.5525159095766439
1.2665859875786614
1.097913156098685
1.0258545926056237
1.0049477140662735
1.0007815878210524
1.00011325315505
1.000015522475099
1.0000020321427479
1.0000002556905563
1.000000031082223
1.0000000036670178
1.0000000004214966
1.000000000047355
1.0000000000052143
1.000000000000564
1.00000000000006
1.0000000000000058
1.0000000000000004
1.0
1.0
1.0
1.0
1.0
1.0
1.0
1.0
1.0
1.0
1.0
1.0
1.0
1.0
1.0
1.0
1.0
1.0
1.0
1.0
1.0
1.0
1.0
1.0
1.0
1.0
1.0
1.0
1.0
1.0
1.0
1.0
1.0
1.0
1.0
1.0
1.0
1.0
1.0
3.587596102148101
3.480194813084519
3.254559240870227
3.023500853542282
2.806561896015163
2.6091780857826117
2.433975424554169
2.280963516147402
2.148824239409633
2.0358501981920125
1.9404207949123708
1.8612003389437275
1.7971889334577813
1.7476966504300182
1.7123002524866466
1.6908130114752744
1.6832362711628952
1.6896889900081198
1.7103102735878677
1.745133262633244
1.79395522732981
1.8562474783266523
1.931220875260583
2.0180250525562995
2.1158313475918797
2.2237399482356905
2.3406481203361116
2.465132171009043
2.5953631007708773
2.729064887616522
2.8635045974140096
2.995492309069104
3.121367509564058
3.2369423328105316
3.3373621125047923
3.4168392212691563
3.4682278752590827
3.482455977955782
3.4479587603112156
3.3505547072996444
3.1748226651529787
2.908762762397281
2.5533044524626507
2.135314889250355
1.714252814101764
1.3664027859360224
1.1435733077489572
1.0401288161982012
1.0077947239701333
1.0011833792114204
1.0001623149671945
1.0000210872210016
1.0000026271384403
1.000000315890131
1.0000000368432502
1.0000000041856267
1.0000000004647793
1.0000000000505889
1.00000000000541
1.0000000000005693
1.0000000000000588
1.0000000000000053
1.0000000000000004
1.0
1.0
1.0
1.0
1.0
1.0
1.0
1.0
1.0
1.0
1.0
1.0
1.0
1.0
1.0
1.0
1.0
1.0
1.0
1.0
1.0
1.0
1.0
1.0
1.0
1.0
1.0
1.0
1.0
1.0
1.0
1.0
1.0
1.0
1.0
1.0
1.0
1.0
3.5038760735492405
3.3794148863312614
3.1176976295724055
2.852100995084945
2.6076943169308437
2.389283745300239
2.198194530663102
2.0332909163979433
1.8922868371063886
1.772691211945653
1.6722489265946472
1.589103191071015
1.5218156405399572
1.4693264896614946
1.4309041645318696
1.4060991335548234
1.394704516974961
1.3967199686467007
1.4122952899895358
1.4416401550867985
1.484888678898133
1.5419478110226983
1.612410879786057
1.6956579984132314
1.7911106179113623
1.8983115484481012
2.0167441985194117
2.145617677040288
2.283713531967839
2.429295537592134
2.5800791461364097
2.733240911287806
2.885448368002903
3.032891373693582
3.1712844198510832
3.2957922278482616
3.400819550685779
3.4796070396260617
3.5236038646841314
3.521681824534335
3.4594962842459838
3.3198674411279736
3.086035891669236
2.7502635886370053
2.328565248024286
1.8744530484618245
1.4722568799360742
1.1955047873308602
1.0574988180794882
1.0114160774289342
1.0016775680889651
1.0002183202300627
1.000026939477637
1.000003201330801
1.0000003687646093
1.0000000413680525
1.000000004536177
1.000000000487676
1.000000000051529
1.0000000000053617
1.0000000000005502
1.000000000000055
1.0000000000000049
1.0000000000000004
1.0
1.0
1.0
1.0
1.0
1.0
1.0
1.0
1.0
1.0
1.0
1.0
1.0
1.0
1.0
1.0
1.0
1.0
1.0
1.0
1.0
1.0
1.0
1.0
1.0
1.0
1.0
1.0
1.0
1.0
1.0
1.0
1.0
1.0
1.0
1.0
1.0
3.3899105565369054
3.248283934326123
2.9508826116591607
2.6528286395469065
2.3850040026320576
2.1508907026429545
1.949667227355476
1.7785319034927132
1.6339578071021155
1.512564995352291
1.4114509579161723
1.328263199198466
1.2611621864545421
1.2087505910744103
1.1700021327904957
1.1442001174300631
1.1308906348844998
1.1298523435727788
1.1410813785776528
1.1647684960215599
1.2012286440540625
1.2507578153869823
1.313456261434898
1.3891326098452912
1.477449556422791
1.5782359573224003
1.6915404686712232
1.8173311948173594
1.9551865069936862
2.1041259880816097
2.2625318740125673
2.42812463801691
2.5979730411562714
2.768541809526397
2.9357685182134188
3.095132068360972
3.2416540877536324
3.369762830034094
3.472940680772677
3.5430907569109005
3.5696250664610214
3.538467812506514
3.431663866384317
3.2293266020718545
2.916899221527262
2.5001971731980257
2.0243883160952882
1.5769252849811575
1.2497520797159816
1.0765888645692576
1.0155402197036274
1.002222448884789
1.000275175013688
1.00003233286706
1.0000036748932377
1.0000004066451385
1.0000000439904542
1.0000000046671922
1.000000000486867
1.00000000005004
1.0000000000050757
1.000000000000508
1.0000000000000497
1.0000000000000044
1.0000000000000004
1.0
1.0
1.0
1.0
1.0
1.0
1.0
1.0
1.0
1.0
1.0
1.0
1.0
1.0
1.0
1.0
1.0
1.0
1.0
1.0
1.0
1.0
1.0
1.0
1.0
1.0
1.0
1.0
1.0
1.0
1.0
1.0
1.0
1.0
1.0
1.0
3.2554202584243663
3.0963533869456654
2.763824515460681
2.4361926205565516