# vtk DataFile Version 3.0 
shock_diffraction_time_series_296_.vtk
ASCII
DATASET UNSTRUCTURED_GRID
POINTS         10201 double
0.0 0.0 0.0
0.01 0.0 0.0
0.02 0.0 0.0
0.03 0.0 0.0
0.04 0.0 0.0
0.05 0.0 0.0
0.06 0.0 0.0
0.07 0.0 0.0
0.08 0.0 0.0
0.09 0.0 0.0
0.1 0.0 0.0
0.11 0.0 0.0
0.12 0.0 0.0
0.13 0.0 0.0
0.14 0.0 0.0
0.15 0.0 0.0
0.16 0.0 0.0
0.17 0.0 0.0
0.18 0.0 0.0
0.19 0.0 0.0
0.2 0.0 0.0
0.21 0.0 0.0
0.22 0.0 0.0
0.23 0.0 0.0
0.24 0.0 0.0
0.25 0.0 0.0
0.26 0.0 0.0
0.27 0.0 0.0
0.28 0.0 0.0
0.29 0.0 0.0
0.3 0.0 0.0
0.31 0.0 0.0
0.32 0.0 0.0
0.33 0.0 0.0
0.34 0.0 0.0
0.35000000000000003 0.0 0.0
0.36 0.0 0.0
0.37 0.0 0.0
0.38 0.0 0.0
0.39 0.0 0.0
0.4 0.0 0.0
0.41000000000000003 0.0 0.0
0.42 0.0 0.0
0.43 0.0 0.0
0.44 0.0 0.0
0.45 0.0 0.0
0.46 0.0 0.0
0.47000000000000003 0.0 0.0
0.48 0.0 0.0
0.49 0.0 0.0
0.5 0.0 0.0
0.51 0.0 0.0
0.52 0.0 0.0
0.53 0.0 0.0
0.54 0.0 0.0
0.55 0.0 0.0
0.56 0.0 0.0
0.5700000000000001 0.0 0.0
0.58 0.0 0.0
0.59 0.0 0.0
0.6 0.0 0.0
0.61 0.0 0.0
0.62 0.0 0.0
0.63 0.0 0.0
0.64 0.0 0.0
0.65 0.0 0.0
0.66 0.0 0.0
0.67 0.0 0.0
0.68 0.0 0.0
0.6900000000000001 0.0 0.0
0.7000000000000001 0.0 0.0
0.71 0.0 0.0
0.72 0.0 0.0
0.73 0.0 0.0
0.74 0.0 0.0
0.75 0.0 0.0
0.76 0.0 0.0
0.77 0.0 0.0
0.78 0.0 0.0
0.79 0.0 0.0
0.8 0.0 0.0
0.81 0.0 0.0
0.8200000000000001 0.0 0.0
0.8300000000000001 0.0 0.0
0.84 0.0 0.0
0.85 0.0 0.0
0.86 0.0 0.0
0.87 0.0 0.0
0.88 0.0 0.0
0.89 0.0 0.0
0.9 0.0 0.0
0.91 0.0 0.0
0.92 0.0 0.0
0.93 0.0 0.0
0.9400000000000001 0.0 0.0
0.9500000000000001 0.0 0.0
0.96 0.0 0.0
0.97 0.0 0.0
0.98 0.0 0.0
0.99 0.0 0.0
1.0 0.0 0.0
0.0 0.01 0.0
0.01 0.01 0.0
0.02 0.01 0.0
0.03 0.01 0.0
0.04 0.01 0.0
0.05 0.01 0.0
0.06 0.01 0.0
0.07 0.01 0.0
0.08 0.01 0.0
0.09 0.01 0.0
0.1 0.01 0.0
0.11 0.01 0.0
0.12 0.01 0.0
0.13 0.01 0.0
0.14 0.01 0.0
0.15 0.01 0.0
0.16 0.01 0.0
0.17 0.01 0.0
0.18 0.01 0.0
0.19 0.01 0.0
0.2 0.01 0.0
0.21 0.01 0.0
0.22 0.01 0.0
0.23 0.01 0.0
0.24 0.01 0.0
0.25 0.01 0.0
0.26 0.01 0.0
0.27 0.01 0.0
0.28 0.01 0.0
0.29 0.01 0.0
0.3 0.01 0.0
0.31 0.01 0.0
0.32 0.01 0.0
0.33 0.01 0.0
0.34 0.01 0.0
0.35000000000000003 0.01 0.0
0.36 0.01 0.0
0.37 0.01 0.0
0.38 0.01 0.0
0.39 0.01 0.0
0.4 0.01 0.0
0.41000000000000003 0.01 0.0
0.42 0.01 0.0
0.43 0.01 0.0
0.44 0.01 0.0
0.45 0.01 0.0
0.46 0.01 0.0
0.47000000000000003 0.01 0.0
0.48 0.01 0.0
0.49 0.01 0.0
0.5 0.01 0.0
0.51 0.01 0.0
0.52 0.01 0.0
0.53 0.01 0.0
0.54 0.01 0.0
0.55 0.01 0.0
0.56 0.01 0.0
0.5700000000000001 0.01 0.0
0.58 0.01 0.0
0.59 0.01 0.0
0.6 0.01 0.0
0.61 0.01 0.0
0.62 0.01 0.0
0.63 0.01 0.0
0.64 0.01 0.0
0.65 0.01 0.0
0.66 0.01 0.0
0.67 0.01 0.0
0.68 0.01 0.0
0.6900000000000001 0.01 0.0
0.7000000000000001 0.01 0.0
0.71 0.01 0.0
0.72 0.01 0.0
0.73 0.01 0.0
0.74 0.01 0.0
0.75 0.01 0.0
0.76 0.01 0.0
0.77 0.01 0.0
0.78 0.01 0.0
0.79 0.01 0.0
0.8 0.01 0.0
0.81 0.01 0.0
0.8200000000000001 0.01 0.0
0.8300000000000001 0.01 0.0
0.84 0.01 0.0
0.85 0.01 0.0
0.86 0.01 0.0
0.87 0.01 0.0
0.88 0.01 0.0
0.89 0.01 0.0
0.9 0.01 0.0
0.91 0.01 0.0
0.92 0.01 0.0
0.93 0.01 0.0
0.9400000000000001 0.01 0.0
0.9500000000000001 0.01 0.0
0.96 0.01 0.0
0.97 0.01 0.0
0.98 0.01 0.0
0.99 0.01 0.0
1.0 0.01 0.0
0.0 0.02 0.0
0.01 0.02 0.0
0.02 0.02 0.0
0.03 0.02 0.0
0.04 0.02 0.0
0.05 0.02 0.0
0.06 0.02 0.0
0.07 0.02 0.0
0.08 0.02 0.0
0.09 0.02 0.0
0.1 0.02 0.0
0.11 0.02 0.0
0.12 0.02 0.0
0.13 0.02 0.0
0.14 0.02 0.0
0.15 0.02 0.0
0.16 0.02 0.0
0.17 0.02 0.0
0.18 0.02 0.0
0.19 0.02 0.0
0.2 0.02 0.0
0.21 0.02 0.0
0.22 0.02 0.0
0.23 0.02 0.0
0.24 0.02 0.0
0.25 0.02 0.0
0.26 0.02 0.0
0.27 0.02 0.0
0.28 0.02 0.0
0.29 0.02 0.0
0.3 0.02 0.0
0.31 0.02 0.0
0.32 0.02 0.0
0.33 0.02 0.0
0.34 0.02 0.0
0.35000000000000003 0.02 0.0
0.36 0.02 0.0
0.37 0.02 0.0
0.38 0.02 0.0
0.39 0.02 0.0
0.4 0.02 0.0
0.41000000000000003 0.02 0.0
0.42 0.02 0.0
0.43 0.02 0.0
0.44 0.02 0.0
0.45 0.02 0.0
0.46 0.02 0.0
0.47000000000000003 0.02 0.0
0.48 0.02 0.0
0.49 0.02 0.0
0.5 0.02 0.0
0.51 0.02 0.0
0.52 0.02 0.0
0.53 0.02 0.0
0.54 0.02 0.0
0.55 0.02 0.0
0.56 0.02 0.0
0.5700000000000001 0.02 0.0
0.58 0.02 0.0
0.59 0.02 0.0
0.6 0.02 0.0
0.61 0.02 0.0
0.62 0.02 0.0
0.63 0.02 0.0
0.64 0.02 0.0
0.65 0.02 0.0
0.66 0.02 0.0
0.67 0.02 0.0
0.68 0.02 0.0
0.6900000000000001 0.02 0.0
0.7000000000000001 0.02 0.0
0.71 0.02 0.0
0.72 0.02 0.0
0.73 0.02 0.0
0.74 0.02 0.0
0.75 0.02 0.0
0.76 0.02 0.0
0.77 0.02 0.0
0.78 0.02 0.0
0.79 0.02 0.0
0.8 0.02 0.0
0.81 0.02 0.0
0.8200000000000001 0.02 0.0
0.8300000000000001 0.02 0.0
0.84 0.02 0.0
0.85 0.02 0.0
0.86 0.02 0.0
0.87 0.02 0.0
0.88 0.02 0.0
0.89 0.02 0.0
0.9 0.02 0.0
0.91 0.02 0.0
0.92 0.02 0.0
0.93 0.02 0.0
0.9400000000000001 0.02 0.0
0.9500000000000001 0.02 0.0
0.96 0.02 0.0
0.97 0.02 0.0
0.98 0.02 0.0
0.99 0.02 0.0
1.0 0.02 0.0
0.0 0.03 0.0
0.01 0.03 0.0
0.02 0.03 0.0
0.03 0.03 0.0
0.04 0.03 0.0
0.05 0.03 0.0
0.06 0.03 0.0
0.07 0.03 0.0
0.08 0.03 0.0
0.09 0.03 0.0
0.1 0.03 0.0
0.11 0.03 0.0
0.12 0.03 0.0
0.13 0.03 0.0
0.14 0.03 0.0
0.15 0.03 0.0
0.16 0.03 0.0
0.17 0.03 0.0
0.18 0.03 0.0
0.19 0.03 0.0
0.2 0.03 0.0
0.21 0.03 0.0
0.22 0.03 0.0
0.23 0.03 0.0
0.24 0.03 0.0
0.25 0.03 0.0
0.26 0.03 0.0
0.27 0.03 0.0
0.28 0.03 0.0
0.29 0.03 0.0
0.3 0.03 0.0
0.31 0.03 0.0
0.32 0.03 0.0
0.33 0.03 0.0
0.34 0.03 0.0
0.35000000000000003 0.03 0.0
0.36 0.03 0.0
0.37 0.03 0.0
0.38 0.03 0.0
0.39 0.03 0.0
0.4 0.03 0.0
0.41000000000000003 0.03 0.0
0.42 0.03 0.0
0.43 0.03 0.0
0.44 0.03 0.0
0.45 0.03 0.0
0.46 0.03 0.0
0.47000000000000003 0.03 0.0
0.48 0.03 0.0
0.49 0.03 0.0
0.5 0.03 0.0
0.51 0.03 0.0
0.52 0.03 0.0
0.53 0.03 0.0
0.54 0.03 0.0
0.55 0.03 0.0
0.56 0.03 0.0
0.5700000000000001 0.03 0.0
0.58 0.03 0.0
0.59 0.03 0.0
0.6 0.03 0.0
0.61 0.03 0.0
0.62 0.03 0.0
0.63 0.03 0.0
0.64 0.03 0.0
0.65 0.03 0.0
0.66 0.03 0.0
0.67 0.03 0.0
0.68 0.03 0.0
0.6900000000000001 0.03 0.0
0.7000000000000001 0.03 0.0
0.71 0.03 0.0
0.72 0.03 0.0
0.73 0.03 0.0
0.74 0.03 0.0
0.75 0.03 0.0
0.76 0.03 0.0
0.77 0.03 0.0
0.78 0.03 0.0
0.79 0.03 0.0
0.8 0.03 0.0
0.81 0.03 0.0
0.8200000000000001 0.03 0.0
0.8300000000000001 0.03 0.0
0.84 0.03 0.0
0.85 0.03 0.0
0.86 0.03 0.0
0.87 0.03 0.0
0.88 0.03 0.0
0.89 0.03 0.0
0.9 0.03 0.0
0.91 0.03 0.0
0.92 0.03 0.0
0.93 0.03 0.0
0.9400000000000001 0.03 0.0
0.9500000000000001 0.03 0.0
0.96 0.03 0.0
0.97 0.03 0.0
0.98 0.03 0.0
0.99 0.03 0.0
1.0 0.03 0.0
0.0 0.04 0.0
0.01 0.04 0.0
0.02 0.04 0.0
0.03 0.04 0.0
0.04 0.04 0.0
0.05 0.04 0.0
0.06 0.04 0.0
0.07 0.04 0.0
0.08 0.04 0.0
0.09 0.04 0.0
0.1 0.04 0.0
0.11 0.04 0.0
0.12 0.04 0.0
0.13 0.04 0.0
0.14 0.04 0.0
0.15 0.04 0.0
0.16 0.04 0.0
0.17 0.04 0.0
0.18 0.04 0.0
0.19 0.04 0.0
0.2 0.04 0.0
0.21 0.04 0.0
0.22 0.04 0.0
0.23 0.04 0.0
0.24 0.04 0.0
0.25 0.04 0.0
0.26 0.04 0.0
0.27 0.04 0.0
0.28 0.04 0.0
0.29 0.04 0.0
0.3 0.04 0.0
0.31 0.04 0.0
0.32 0.04 0.0
0.33 0.04 0.0
0.34 0.04 0.0
0.35000000000000003 0.04 0.0
0.36 0.04 0.0
0.37 0.04 0.0
0.38 0.04 0.0
0.39 0.04 0.0
0.4 0.04 0.0
0.41000000000000003 0.04 0.0
0.42 0.04 0.0
0.43 0.04 0.0
0.44 0.04 0.0
0.45 0.04 0.0
0.46 0.04 0.0
0.47000000000000003 0.04 0.0
0.48 0.04 0.0
0.49 0.04 0.0
0.5 0.04 0.0
0.51 0.04 0.0
0.52 0.04 0.0
0.53 0.04 0.0
0.54 0.04 0.0
0.55 0.04 0.0
0.56 0.04 0.0
0.5700000000000001 0.04 0.0
0.58 0.04 0.0
0.59 0.04 0.0
0.6 0.04 0.0
0.61 0.04 0.0
0.62 0.04 0.0
0.63 0.04 0.0
0.64 0.04 0.0
0.65 0.04 0.0
0.66 0.04 0.0
0.67 0.04 0.0
0.68 0.04 0.0
0.6900000000000001 0.04 0.0
0.7000000000000001 0.04 0.0
0.71 0.04 0.0
0.72 0.04 0.0
0.73 0.04 0.0
0.74 0.04 0.0
0.75 0.04 0.0
0.76 0.04 0.0
0.77 0.04 0.0
0.78 0.04 0.0
0.79 0.04 0.0
0.8 0.04 0.0
0.81 0.04 0.0
0.8200000000000001 0.04 0.0
0.8300000000000001 0.04 0.0
0.84 0.04 0.0
0.85 0.04 0.0
0.86 0.04 0.0
0.87 0.04 0.0
0.88 0.04 0.0
0.89 0.04 0.0
0.9 0.04 0.0
0.91 0.04 0.0
0.92 0.04 0.0
0.93 0.04 0.0
0.9400000000000001 0.04 0.0
0.9500000000000001 0.04 0.0
0.96 0.04 0.0
0.97 0.04 0.0
0.98 0.04 0.0
0.99 0.04 0.0
1.0 0.04 0.0
0.0 0.05 0.0
0.01 0.05 0.0
0.02 0.05 0.0
0.03 0.05 0.0
0.04 0.05 0.0
0.05 0.05 0.0
0.06 0.05 0.0
0.07 0.05 0.0
0.08 0.05 0.0
0.09 0.05 0.0
0.1 0.05 0.0
0.11 0.05 0.0
0.12 0.05 0.0
0.13 0.05 0.0
0.14 0.05 0.0
0.15 0.05 0.0
0.16 0.05 0.0
0.17 0.05 0.0
0.18 0.05 0.0
0.19 0.05 0.0
0.2 0.05 0.0
0.21 0.05 0.0
0.22 0.05 0.0
0.23 0.05 0.0
0.24 0.05 0.0
0.25 0.05 0.0
0.26 0.05 0.0
0.27 0.05 0.0
0.28 0.05 0.0
0.29 0.05 0.0
0.3 0.05 0.0
0.31 0.05 0.0
0.32 0.05 0.0
0.33 0.05 0.0
0.34 0.05 0.0
0.35000000000000003 0.05 0.0
0.36 0.05 0.0
0.37 0.05 0.0
0.38 0.05 0.0
0.39 0.05 0.0
0.4 0.05 0.0
0.41000000000000003 0.05 0.0
0.42 0.05 0.0
0.43 0.05 0.0
0.44 0.05 0.0
0.45 0.05 0.0
0.46 0.05 0.0
0.47000000000000003 0.05 0.0
0.48 0.05 0.0
0.49 0.05 0.0
0.5 0.05 0.0
0.51 0.05 0.0
0.52 0.05 0.0
0.53 0.05 0.0
0.54 0.05 0.0
0.55 0.05 0.0
0.56 0.05 0.0
0.5700000000000001 0.05 0.0
0.58 0.05 0.0
0.59 0.05 0.0
0.6 0.05 0.0
0.61 0.05 0.0
0.62 0.05 0.0
0.63 0.05 0.0
0.64 0.05 0.0
0.65 0.05 0.0
0.66 0.05 0.0
0.67 0.05 0.0
0.68 0.05 0.0
0.6900000000000001 0.05 0.0
0.7000000000000001 0.05 0.0
0.71 0.05 0.0
0.72 0.05 0.0
0.73 0.05 0.0
0.74 0.05 0.0
0.75 0.05 0.0
0.76 0.05 0.0
0.77 0.05 0.0
0.78 0.05 0.0
0.79 0.05 0.0
0.8 0.05 0.0
0.81 0.05 0.0
0.8200000000000001 0.05 0.0
0.8300000000000001 0.05 0.0
0.84 0.05 0.0
0.85 0.05 0.0
0.86 0.05 0.0
0.87 0.05 0.0
0.88 0.05 0.0
0.89 0.05 0.0
0.9 0.05 0.0
0.91 0.05 0.0
0.92 0.05 0.0
0.93 0.05 0.0
0.9400000000000001 0.05 0.0
0.9500000000000001 0.05 0.0
0.96 0.05 0.0
0.97 0.05 0.0
0.98 0.05 0.0
0.99 0.05 0.0
1.0 0.05 0.0
0.0 0.06 0.0
0.01 0.06 0.0
0.02 0.06 0.0
0.03 0.06 0.0
0.04 0.06 0.0
0.05 0.06 0.0
0.06 0.06 0.0
0.07 0.06 0.0
0.08 0.06 0.0
0.09 0.06 0.0
0.1 0.06 0.0
0.11 0.06 0.0
0.12 0.06 0.0
0.13 0.06 0.0
0.14 0.06 0.0
0.15 0.06 0.0
0.16 0.06 0.0
0.17 0.06 0.0
0.18 0.06 0.0
0.19 0.06 0.0
0.2 0.06 0.0
0.21 0.06 0.0
0.22 0.06 0.0
0.23 0.06 0.0
0.24 0.06 0.0
0.25 0.06 0.0
0.26 0.06 0.0
0.27 0.06 0.0
0.28 0.06 0.0
0.29 0.06 0.0
0.3 0.06 0.0
0.31 0.06 0.0
0.32 0.06 0.0
0.33 0.06 0.0
0.34 0.06 0.0
0.35000000000000003 0.06 0.0
0.36 0.06 0.0
0.37 0.06 0.0
0.38 0.06 0.0
0.39 0.06 0.0
0.4 0.06 0.0
0.41000000000000003 0.06 0.0
0.42 0.06 0.0
0.43 0.06 0.0
0.44 0.06 0.0
0.45 0.06 0.0
0.46 0.06 0.0
[...]
POINT_DATA  10201
FIELD  FlowField  5
Density    1 10201  double
8.181664816094841
8.204065434438238
8.235718723696861
8.20582779293158
8.059790918365026
7.778795180843045
7.360609571293989
6.787935929926812
6.061825523092482
5.26156870615346
4.518692029057259
3.930601523939682
3.5186593925317515
3.25097011234291
3.0819567575023097
2.9749910757315288
2.9068074495524305
2.8641050588483274
2.8394176032140743
2.828374917041373
2.82822909572306
2.837114701587084
2.853671718552068
2.8768396832939045
2.905734428429147
2.9395678822568216
2.9775938635088055
3.0190735637840653
3.0632597909689347
3.109401431253095
3.1567696320792833
3.20470495959949
3.252680390703257
3.3003693100599687
3.3477026235621032
3.394897454971761
3.4424441383051683
3.491048671704841
3.5415413111133747
3.5947727461958285
3.6515220385351164
3.7124340027108014
3.7779917714098272
3.848519091887165
3.92420101917567
4.005111824034533
4.091242753015546
4.18252665460832
4.278859436287743
4.3801194374579016
4.486185681223155
4.596955395010262
4.712360689142763
4.832384019192309
4.957071968163416
5.086546838917942
5.221015449989816
5.36077434517855
5.506210381166554
5.657795412868223
5.816073654008251
5.981640390948594
6.15511124811267
6.337082332670321
6.528083464855432
6.7285293769224355
6.938677234987962
7.158603052564499
7.388213978288223
7.62731597802367
7.8757529249224465
8.1336179868541
8.401505819870163
8.680722835047963
8.973314941534127
9.281746282969127
9.608133744994547
9.953160491247736
10.31507831515177
10.689367710684927
11.069421722479575
11.448287473341843
11.820538036278467
12.183134571215188
12.535102936615257
12.876392397364254
13.206534201317602
13.52359366402769
13.823621552783756
14.100618734103389
14.34696909495333
14.554300164738294
14.714746295954185
14.822501358053106
14.87546348732305
14.876681826941468
14.835085462993087
14.764999992784862
14.684248990631286
14.61109131404417
14.578610855707726
7.85459964069852
7.893265745337723
7.966882783898548
7.98977062694977
7.894159644960235
7.653652239829295
7.262480899539304
6.703828499536154
5.983886329220328
5.187955906970242
4.450130100647017
3.867221007459278
3.4594546850749888
3.1946782832669767
3.027798902747872
2.9228104596002775
2.8568705745145344
2.8168718619877993
2.7953960979791
2.788055298719389
2.792063692423585
2.805518127719779
2.827027443855628
2.8555067256896285
2.8900516229238193
2.929854900085897
2.974148961977651
3.0221684830198807
3.0731325158519454
3.1262477861835345
3.180734875621885
3.2358766651720483
3.291083906838277
3.3459669724320795
3.400397630277048
3.4545428874123845
3.5088569606984326
3.5640276600254044
3.6208868801038
3.6803058958392385
3.7430995354687004
3.8099576511803903
3.8814110030616655
3.957827568987227
4.039428948195965
4.126315960296952
4.218495748250614
4.315906765560303
4.418440974496872
4.525963873010404
4.6383330573131865
4.755415624313273
4.877104323044411
5.003332154951105
5.134085058046473
5.2694122817997435
5.4094339887512
5.5543454811367425
5.704417271797691
5.859990059534035
6.021463616384718
6.189278758708265
6.363892083963784
6.545744136686867
6.73522319937221
6.932628985882144
7.13814307274307
7.351815744334979
7.57358140369886
7.803315079089559
8.040937836625073
8.28656559003994
8.540671224997027
8.804195420641394
9.07850851085125
9.365122518463057
9.665120100253228
9.978427517352372
10.303243007913734
10.635998455458246
10.972035541140938
11.306854804815686
11.637345511124733
11.962229887688723
12.281550796102474
12.595623274624455
12.903939845050674
13.204358528544388
13.492714628580543
13.762869669923257
14.007174116310571
14.2173211070699
14.385558382798674
14.506145667154819
14.576840119621426
14.60010927264134
14.583543291667105
14.53915601208349
14.481670903746737
14.426024912133174
14.400454732932289
7.0946577336816645
7.164200436471791
7.320524016527825
7.453912933953397
7.470789513863591
7.324704794244884
6.996818308902382
6.46958908857125
5.763267017428855
4.979436227954194
4.257997005055133
3.6927294361564007
3.299922229148203
3.046448394339394
2.888483139201822
2.791684722379447
2.734324555996373
2.7037919397649057
2.69278480258716
2.6968609782849158
2.713125300185739
2.7395570856264078
2.774652317861428
2.817216851685268
2.866235686215077
2.9207848079536785
2.979971125224151
3.0428951898459813
3.108635974767571
3.1762588316372202
3.244847390481304
3.3135576723503837
3.381688352956557
3.4487558798388305
3.5145587881606923
3.579214391624835
3.6431549213859196
3.7070792516817277
3.7718680779482905
3.8384803312319686
3.9078525309675554
3.9808192686610315
4.05806426146249
4.140101744036635
4.227281229132864
4.319806378267792
4.417760005315042
4.521130077669763
4.629834233090238
4.7437419887260335
4.862694513947234
4.986521976668534
5.115058436411873
5.24815423537939
5.385685852767884
5.527563194885092
5.673734261571241
5.824187056257885
5.978948521293609
6.1380802302842765
6.301670609212698
6.469823636797048
6.642644336435077
6.820221945865143
7.002612426776597
7.189822897940326
7.38180152343421
7.578437120875327
7.779572799885845
7.985036510500886
8.194687564412309
8.408471483919861
8.626466523904956
8.848896485206508
9.076081654619827
9.30831222013385
9.545664508745071
9.787834963629411
10.034106437466123
10.283538713485559
10.5353632738485
10.789377991700302
11.046166760373625
11.306975312151913
11.573122423919031
11.845216974627103
12.122489776248631
12.402348721381411
12.680223350281507
12.949730854290332
13.203179237833455
13.432407213349393
13.629908729657918
13.790102663752624
13.910368759952068
13.991606758640446
14.03818360365997
14.056988165387544
14.055869682591744
14.042205798565664
14.03309321735173
6.2638524296185185
6.35527204846335
6.5758598976402105
6.80713180037081
6.935802834290081
6.889093209042847
6.62577984641187
6.126598572280732
5.433033254966773
4.668380043370028
3.9769878022427365
3.445025198016811
3.081574648685039
2.851654264813232
2.713092075950349
2.6337671193224828
2.5934018344873206
2.5800118673777046
2.58642615623319
2.608107367359567
2.6419765923724308
2.685794109784486
2.7378180136016503
2.7966031723124454
2.8608767387658234
2.929460293913605
3.0012241241852253
3.075066496849481
3.1499143922809814
3.224743574278487
3.298615674374104
3.370728415722682
3.440472650891061
3.5074873174900034
3.571701776203317
3.6333553226538764
3.6929865692538386
3.751390671003258
3.809548843557819
3.868540449814706
3.9294513345796296
3.993292093686008
4.0609367286300575
4.133086802746673
4.210260500902635
4.292801601093496
4.38090130708041
4.4746261237826275
4.573946603294631
4.6787637815045
4.788931758319322
4.904275938334639
5.024607039650785
5.149731264778701
5.2794571358442655
5.413599497704309
5.551981131076948
5.69443232668141
5.8407886809575755
5.990887317277245
6.144561740222955
6.301635605059471
6.461915835651465
6.625185764218849
6.791199260714013
6.959677135693038
7.130307376131381
7.302750864786596
7.476654025107162
7.651669128724929
7.82748181061354
8.00384391347024
8.18060856060861
8.357763875644633
8.535462375818856
8.714045412428206
8.894066372507138
9.076320861665419
9.261892024445572
9.452209192500233
9.649095361745209
9.854724057324335
10.071413228464705
10.301352763678555
10.546184704988598
10.806455639010325
11.081173589551794
11.367518633528933
11.660771975401182
11.954525934109661
12.241210522952937
12.512933471767766
12.762499565853446
12.98432729052275
13.17519299499283
13.334406214122613
13.463019519050459
13.562292407537022
13.632152341309578
13.670885272647123
13.682172305200238
5.541500795979566
5.642851533167693
5.898305820977389
6.1938547007118
6.4046749043667255
6.430758332708783
6.207384178875214
5.719108496023285
5.03458484069053
4.297748894218775
3.651368851815877
3.168574847665411
2.848668747409487
2.654277952753019
2.545006002720523
2.4910885254001065
2.4737536816738506
2.481658717037501
2.507758498303451
2.5473915211017317
2.597240280265843
2.654774674655438
2.7179464227408787
2.7850182264469394
2.854469928390853
2.924950807610253
2.995259923664467
3.064343182468974
3.1312998749704137
3.1953940689536373
3.25606786299099
3.3129544010803897
3.3658889832557435
3.4149168395245515
3.460296221957999
3.5024952929052673
3.54218078516262
3.580195845483766
3.6175244761653853
3.655241328585586
3.6944487266145027
3.7362072122186607
3.7814698097640704
3.8310311888152593
3.885499706518763
3.9452941227960645
4.010660589575315
4.081701966282048
4.158411319761357
4.240703544361202
4.32844175859765
4.42145737224923
4.519564098563012
4.622566824226955
4.730266420612477
4.842461507076716
4.958948002786323
5.079517123054223
5.203952332589501
5.332025666107262
5.463493762261097
5.598093980262565
5.735541060472315
5.875524965656465
6.017710708026348
6.161741181897099
6.307244232866664
6.453845186994958
6.60118595816819
6.74895141159619
6.89690300254782
7.044919020021328
7.193039970222335
7.341516638975701
7.490857290356126
7.641869711362081
7.795694034070207
7.953824012746918
8.118117030350385
8.290793165335803
8.47441075877951
8.67172057111
8.885424549996323
9.117947879788975
9.371071969394384
9.645461692643952
9.940274272025302
10.252891107305752
10.578859928588992
10.912127282940393
11.245591448469565
11.571846587226421
11.884033864436308
12.176744647254246
12.446566641890257
12.691635457027447
12.90994343530245
13.097045713839702
13.244493155818203
13.34049569877528
13.374020209276058
4.961308590871013
5.066751354644547
5.340350903091231
5.674576370000657
5.9344554399605975
5.995332167423673
5.778121447510902
5.28263641958658
4.607320065796331
3.9096447982441656
3.322374392888129
2.9011188011954205
2.6343592901983066
2.4825227972522215
2.4071683644425974
2.380902767785327
2.3864503047006447
2.4131396045978715
2.4541095194485236
2.504645777321496
2.561283861527988
2.621337150097662
2.6826511737111667
2.743478884644529
2.8024196562902963
2.8583886082916035
2.910596192549602
2.9585266728927837
3.0019103969687566
3.040689294205875
3.074978065697894
3.105025252740904
3.1311789966975714
3.1538619443192726
3.1735583578164928
3.190814012308758
3.206246127831266
3.2205570019139897
3.2345421779163526
3.2490832835956005
3.2651185828322977
3.283591259589589
3.305384463526579
3.3312587597755154
3.361807766413602
3.3974410760571208
3.438393919404472
3.484755539516708
3.5365056709652767
3.593550252601508
3.655751144692831
3.722948025267711
3.794972834386842
3.871658121145562
3.9528408497517655
4.038363048664389
4.128070385414789
4.221809464032902
4.319424438976333
4.420753407681367
4.525624967804166
4.633855362608039
4.745246698605434
4.859586877705506
4.976651984533848
5.096211924779377
5.218040166512203
5.341928256586067
5.467705425163003
5.595263295167293
5.724585291877143
5.855779966335321
5.989117245115456
6.125066150685109
6.264331934402014
6.407890097072188
6.557014393150109
6.7132965036075145
6.878657539115549
7.055354432533066
7.245950233255515
7.453139089733879
7.679600958422547
7.927832729298946
8.199751493705557
8.496258129156583
8.816856873649336
9.159384848240252
9.519961344176888
9.893234151584306
10.272842037633769
10.652133053047944
11.025102500219372
11.387161332631155
11.735054802541429
12.065634821558124
12.373678718806616
12.64916232870827
12.875351158967465
13.02981587108807
13.086052570039929
4.505973468495231
4.614733673690249
4.901179277649941
5.258048534095274
5.536765290789397
5.594629064874423
5.3541162361826204
4.841581554006674
4.182262821335222
3.536419211278482
3.01890802122342
2.6655714908817076
2.454777664989377
2.3457048514991143
2.302266906026773
2.2995348384782175
2.3218033699424927
2.3592170603833273
2.405311108610629
2.455593313963243
2.5067961146558444
2.5564947354944083
2.60291319659518
2.644820407987091
2.6814624444638464
2.712502043126197
2.7379520121512004
2.7580995510968895
2.7734249460012608
2.784521402160421
2.792023523217633
2.796550877042765
2.798671000718044
2.798883756865334
2.797626564959148
2.7952977881465144
2.792293282893535
2.7890485566485954
2.7860762564703956
2.783986972648009
2.783482787808553
2.785319499965949
2.790244125919679
2.7989244788270247
2.811891302019366
2.829507993004132
2.851971591787851
2.879338019954393
2.9115594418339206
2.9485225337496646
2.9900806394080313
3.0360771858697895
3.086360696548834
3.140793081945431
3.1992531276749596
3.261636829118264
3.327855808950501
3.3978346721668156
3.471507881117507
3.548816568653214
3.6297056580323996
3.714121673909822
3.8020116030775055
3.8933232700857605
3.9880077615111
4.086024362893123
4.187348437446042
4.291982591241133
4.399971279963545
4.511418844283481
4.626510960289474
4.745539337330593
4.86892922648893
4.9972691119948225
5.131341533351702
5.2721534131207015
5.420963579881059
5.579304950549771
5.7490013670937286
5.932185398974029
6.131237437248575
6.3486554504090025
6.587036148811051
6.848899956517115
7.136280569602567
7.450331786269478
7.790960045455228
8.156561876219214
8.543962470490314
8.948628172419642
9.365216562421987
9.788400403769842
10.213605398488678
10.637159272972907
11.055676782195924
11.464606422518438
11.855793219298418
12.21428598702485
12.515679604712835
12.726734755113924
12.805067526370841
4.151916742206832
4.265200268231776
4.563290452845508
4.92974318323678
5.199547889390735
5.223244652915798
4.941640910458062
4.41317590617091
3.781514160556348
3.198569027713589
2.756049245066382
2.47039538866987
2.3119659280732447
2.240119817959749
2.221671091161361
2.2343480540983034
2.264205377521542
2.3024837976385912
2.343483558849716
2.3833746556704574
2.419576272801376
2.450431786657226
2.4750214364683187
2.4930291498845762
2.504623213512568
2.510335822955098
2.5109411146140785
2.507338513733955
2.5004502479284088
2.4911404296259114
2.480159821814775
2.4681167061599365
2.4554713103363177
2.442549690800592
2.4295728170947157
2.4166971664412134
2.4040632772286243
2.3918474409304977
2.3803089059468103
2.369821891684313
2.360880987251513
2.3540729185221343
2.3500177440350365
2.3492945463936565
2.3523737790542425
2.35957558450115
2.371061993555739
2.386857925143816
2.4068882199377457
2.4310175951912223
2.459084778300135
2.4909273050023812
2.5263971786630233
2.56536931966315
2.607745047598526
2.6534524762555916
2.702445172883743
2.754699982606085
2.8102145851685885
2.8690051445257088
2.9311043244273662
2.9965599003262087
3.065434241746238
3.1378048410336516
3.2137661725743505
3.293433201348237
3.37694671715222
3.464480762963058
3.5562525312785525
3.6525349288248425
3.7536721390342276
3.860098449219406
3.9723602704128447
4.091141177441947
4.217289340020675
4.351845923546536
4.4960720582124765
4.651471790626479
4.81981156350266
5.003141988606479
5.203701379619202
5.423867896105202
5.666218169679665
5.933319665411658
6.227350976707469
6.549738739314396
6.900800804986656
7.279452622180033
7.683168920987566
8.108344684496847
8.550974705313044
9.007281855474856
9.473961974168294
9.94796399700943
10.425657707170917
10.901256638972262
11.364315498019263
11.796046019440494
12.165446389155852
12.428749940516262
12.527680796904367
3.8784602062989295
3.9972076653475828
4.304621463158062
4.666592975212072
4.903245032275527
4.872391959434128
4.545276209132657
4.01054488103145
3.419224009180801
2.9060715659232823
2.537849135245066
2.3141235613555082
2.2000674689604036
2.156716344900201
2.1543058904854906
2.1734429886871047
2.2021893589262613
2.233217540929464
2.261990809136371
2.2857571738340683
2.3030061486424644
2.3131491319573305
2.3162943062565424
2.3130566910109343
2.3043832899283103
2.2913932134023254
2.275240281319747
2.257005748388366
2.237625141354566
2.217848495024298
2.198229295063816
2.1791351264270253
2.1607727058918655
2.143221418380887
2.1264719068661115
2.1104685136554755
2.0951552636138717
2.080523904229781
2.0666593426009365
2.0537737459978125
2.0422179409813044
2.032460685344867
2.0250348124663327
2.0204619833592616
2.0191779989218444
2.0214811546325033
2.0275158165984433
2.037288761015987
2.0507054973599943
2.067611798936115
2.0878299237370976
2.1111849959863775
2.1375215155334946
2.166712122764498
2.1986611762834203
2.233305267554223
2.270612143185165
2.310579003084025
2.3532307272508124
2.398618304582433
2.446817656395695
2.4979289958834556
2.5520768096788293
2.6094106546675517
2.670106860129561
2.7343712692795505
2.802443325713469
2.8746017517090117
2.951172163771978
3.032537038397671
3.1191483289659483
3.2115431018507725
3.310362497977555
3.416373988803115
3.530496584758517
3.653827915289904
3.7876711164485073
3.9335595728692065
4.093280706152054
4.268902024612181
4.462664261885748
4.676972115162156
4.91449175510794
5.177948245130123
5.46977039766211
5.79172380438366
6.14453893745217
6.527638199334625
6.939170547653752
7.376484669305458
7.836719451827012
8.317192333647297
8.815447927902618
9.328812753039339
9.853400746452863
10.382542392335004
10.904344033640413
11.397463770970377
11.825626701457043
12.135251027696963
12.252673644433568
3.6675539552646867
3.7913346822703398
4.1026806298200285
4.445208322884069
4.63057829044106
4.536905938622385
4.17064724837889
3.643287824475203
3.1025838566482395
2.660919643475245
2.361354774315958
2.1903544512767628
2.1107637768546144
2.086537128181424
2.0916993335890215
2.109897877650165
2.131404911735659
2.1505835656395753
2.164321595891546
2.171149595943401
2.170724849820048
2.1634847872176968
2.1503765150068817
2.132629048538602
2.111563622398835
2.0884467364068557
2.0643893938819176
2.040290792890786
2.0168196560375513
1.9944233801943627
1.9733546068330055
1.9537061865905305
1.935448135201832
1.9184633326159464
1.9025816626774645
1.887614296310545
1.8733902965791482
1.8597963267452102
1.8468169498200167
1.8345684081656621
1.8233146701825729
1.8134541575751775
1.8054720325502216
1.7998657996641756
1.7970650268071138
1.7973702811387076
1.8009279069187893
1.807741392043652
1.8177069581611005
1.8306569827994665
1.8463987811765499
1.8647430093823967
1.885521327605947
1.9085956181206754
1.9338616605166032
1.9612496867734333
1.9907232964125599
2.0222776474583632
2.0559381089300897
2.0917595287934447
2.1298256202943557
2.1702487355902296
2.213170191550006
2.258761279491151
2.307225062521249
2.3587990920750412
2.4137593163094486
2.4724254492000615
2.5351680938904697
2.6024180547034943
2.6746781916414024
2.7525381831243965
2.836692569708099
2.9279621895834396
3.027318877606677
3.1359127864902647
3.255101235199272
3.38647842077089
3.5319075530493493
3.6935585420307566
3.8738148569349167
4.075250140994933
4.300744980684961
4.553328160124368
4.835826373148796
5.150500147381991
5.498660452132634
5.880382872571216
6.294497798269463
6.738987620385993
7.211573152878186
7.710089911145842
8.232435153627431
8.776020575047882
9.336738829506038
9.907438734672969
10.475561942234341
11.018376458781463
11.495657738234511
11.845044577286915
11.978547038100686
3.503273101524832
3.630109216704963
3.937396861577053
4.246830394659861
4.370758543658013
4.216462171504329
3.823677013054306
3.317116273175256
2.833091388101014
2.459916104313254
2.220220453218899
2.091442630240369
2.036523296927772
2.023178339237242
2.029379057437251
2.0418498284146636
2.053143447387897
2.0593935515686583
2.058941020339307
2.051527520328577
2.037783513162859
2.0188612841547147
1.9961517872227172
1.9710683720542015
1.944895122641176
1.9186968637751625
1.8932822035012535
1.8692062972646124
1.8467986226808442
1.826202702306636
1.807418090224321
1.7903387560283672
1.7747854642442058
1.7605325191144576
1.7473311960499307
1.7349332100964214
1.7231175183457406
1.7117223499934535
1.7006812798513335
1.6900574289299317
1.680064726692662
1.6710627647154075
1.6635161936587008
1.657922222688855
1.6547253714529755
1.6542468997098532
1.6566502506467746
1.6619470098406817
1.67003177716007
1.6807279020114458
1.6938294021308553
1.709131877519746
1.7264516638602323
1.7456355341003924
1.7665639407052742
1.7891515584427682
1.813346794324271
1.8391303300399302
1.8665136333600933
1.8955378685476976
1.9262733142554334
1.958819321294402
1.9933049145306994
2.0298900062223693
2.0687673628048944
2.1101655562871455
2.1543530149088577
2.2016434694520384
2.2524031091367847
2.307059847332839
2.366115194122461
2.430159138567339
2.499888456760937
2.576128870959939
2.6598612315932066
2.7522516676519975