# vtk DataFile Version 3.0 
shock_diffraction_time_series_210_.vtk
ASCII
DATASET UNSTRUCTURED_GRID
POINTS         10201 double
0.0 0.0 0.0
0.01 0.0 0.0
0.02 0.0 0.0
0.03 0.0 0.0
0.04 0.0 0.0
0.05 0.0 0.0
0.06 0.0 0.0
0.07 0.0 0.0
0.08 0.0 0.0
0.09 0.0 0.0
0.1 0.0 0.0
0.11 0.0 0.0
0.12 0.0 0.0
0.13 0.0 0.0
0.14 0.0 0.0
0.15 0.0 0.0
0.16 0.0 0.0
0.17 0.0 0.0
0.18 0.0 0.0
0.19 0.0 0.0
0.2 0.0 0.0
0.21 0.0 0.0
0.22 0.0 0.0
0.23 0.0 0.0
0.24 0.0 0.0
0.25 0.0 0.0
0.26 0.0 0.0
0.27 0.0 0.0
0.28 0.0 0.0
0.29 0.0 0.0
0.3 0.0 0.0
0.31 0.0 0.0
0.32 0.0 0.0
0.33 0.0 0.0
0.34 0.0 0.0
0.35000000000000003 0.0 0.0
0.36 0.0 0.0
0.37 0.0 0.0
0.38 0.0 0.0
0.39 0.0 0.0
0.4 0.0 0.0
0.41000000000000003 0.0 0.0
0.42 0.0 0.0
0.43 0.0 0.0
0.44 0.0 0.0
0.45 0.0 0.0
0.46 0.0 0.0
0.47000000000000003 0.0 0.0
0.48 0.0 0.0
0.49 0.0 0.0
0.5 0.0 0.0
0.51 0.0 0.0
0.52 0.0 0.0
0.53 0.0 0.0
0.54 0.0 0.0
0.55 0.0 0.0
0.56 0.0 0.0
0.5700000000000001 0.0 0.0
0.58 0.0 0.0
0.59 0.0 0.0
0.6 0.0 0.0
0.61 0.0 0.0
0.62 0.0 0.0
0.63 0.0 0.0
0.64 0.0 0.0
0.65 0.0 0.0
0.66 0.0 0.0
0.67 0.0 0.0
0.68 0.0 0.0
0.6900000000000001 0.0 0.0
0.7000000000000001 0.0 0.0
0.71 0.0 0.0
0.72 0.0 0.0
0.73 0.0 0.0
0.74 0.0 0.0
0.75 0.0 0.0
0.76 0.0 0.0
0.77 0.0 0.0
0.78 0.0 0.0
0.79 0.0 0.0
0.8 0.0 0.0
0.81 0.0 0.0
0.8200000000000001 0.0 0.0
0.8300000000000001 0.0 0.0
0.84 0.0 0.0
0.85 0.0 0.0
0.86 0.0 0.0
0.87 0.0 0.0
0.88 0.0 0.0
0.89 0.0 0.0
0.9 0.0 0.0
0.91 0.0 0.0
0.92 0.0 0.0
0.93 0.0 0.0
0.9400000000000001 0.0 0.0
0.9500000000000001 0.0 0.0
0.96 0.0 0.0
0.97 0.0 0.0
0.98 0.0 0.0
0.99 0.0 0.0
1.0 0.0 0.0
0.0 0.01 0.0
0.01 0.01 0.0
0.02 0.01 0.0
0.03 0.01 0.0
0.04 0.01 0.0
0.05 0.01 0.0
0.06 0.01 0.0
0.07 0.01 0.0
0.08 0.01 0.0
0.09 0.01 0.0
0.1 0.01 0.0
0.11 0.01 0.0
0.12 0.01 0.0
0.13 0.01 0.0
0.14 0.01 0.0
0.15 0.01 0.0
0.16 0.01 0.0
0.17 0.01 0.0
0.18 0.01 0.0
0.19 0.01 0.0
0.2 0.01 0.0
0.21 0.01 0.0
0.22 0.01 0.0
0.23 0.01 0.0
0.24 0.01 0.0
0.25 0.01 0.0
0.26 0.01 0.0
0.27 0.01 0.0
0.28 0.01 0.0
0.29 0.01 0.0
0.3 0.01 0.0
0.31 0.01 0.0
0.32 0.01 0.0
0.33 0.01 0.0
0.34 0.01 0.0
0.35000000000000003 0.01 0.0
0.36 0.01 0.0
0.37 0.01 0.0
0.38 0.01 0.0
0.39 0.01 0.0
0.4 0.01 0.0
0.41000000000000003 0.01 0.0
0.42 0.01 0.0
0.43 0.01 0.0
0.44 0.01 0.0
0.45 0.01 0.0
0.46 0.01 0.0
0.47000000000000003 0.01 0.0
0.48 0.01 0.0
0.49 0.01 0.0
0.5 0.01 0.0
0.51 0.01 0.0
0.52 0.01 0.0
0.53 0.01 0.0
0.54 0.01 0.0
0.55 0.01 0.0
0.56 0.01 0.0
0.5700000000000001 0.01 0.0
0.58 0.01 0.0
0.59 0.01 0.0
0.6 0.01 0.0
0.61 0.01 0.0
0.62 0.01 0.0
0.63 0.01 0.0
0.64 0.01 0.0
0.65 0.01 0.0
0.66 0.01 0.0
0.67 0.01 0.0
0.68 0.01 0.0
0.6900000000000001 0.01 0.0
0.7000000000000001 0.01 0.0
0.71 0.01 0.0
0.72 0.01 0.0
0.73 0.01 0.0
0.74 0.01 0.0
0.75 0.01 0.0
0.76 0.01 0.0
0.77 0.01 0.0
0.78 0.01 0.0
0.79 0.01 0.0
0.8 0.01 0.0
0.81 0.01 0.0
0.8200000000000001 0.01 0.0
0.8300000000000001 0.01 0.0
0.84 0.01 0.0
0.85 0.01 0.0
0.86 0.01 0.0
0.87 0.01 0.0
0.88 0.01 0.0
0.89 0.01 0.0
0.9 0.01 0.0
0.91 0.01 0.0
0.92 0.01 0.0
0.93 0.01 0.0
0.9400000000000001 0.01 0.0
0.9500000000000001 0.01 0.0
0.96 0.01 0.0
0.97 0.01 0.0
0.98 0.01 0.0
0.99 0.01 0.0
1.0 0.01 0.0
0.0 0.02 0.0
0.01 0.02 0.0
0.02 0.02 0.0
0.03 0.02 0.0
0.04 0.02 0.0
0.05 0.02 0.0
0.06 0.02 0.0
0.07 0.02 0.0
0.08 0.02 0.0
0.09 0.02 0.0
0.1 0.02 0.0
0.11 0.02 0.0
0.12 0.02 0.0
0.13 0.02 0.0
0.14 0.02 0.0
0.15 0.02 0.0
0.16 0.02 0.0
0.17 0.02 0.0
0.18 0.02 0.0
0.19 0.02 0.0
0.2 0.02 0.0
0.21 0.02 0.0
0.22 0.02 0.0
0.23 0.02 0.0
0.24 0.02 0.0
0.25 0.02 0.0
0.26 0.02 0.0
0.27 0.02 0.0
0.28 0.02 0.0
0.29 0.02 0.0
0.3 0.02 0.0
0.31 0.02 0.0
0.32 0.02 0.0
0.33 0.02 0.0
0.34 0.02 0.0
0.35000000000000003 0.02 0.0
0.36 0.02 0.0
0.37 0.02 0.0
0.38 0.02 0.0
0.39 0.02 0.0
0.4 0.02 0.0
0.41000000000000003 0.02 0.0
0.42 0.02 0.0
0.43 0.02 0.0
0.44 0.02 0.0
0.45 0.02 0.0
0.46 0.02 0.0
0.47000000000000003 0.02 0.0
0.48 0.02 0.0
0.49 0.02 0.0
0.5 0.02 0.0
0.51 0.02 0.0
0.52 0.02 0.0
0.53 0.02 0.0
0.54 0.02 0.0
0.55 0.02 0.0
0.56 0.02 0.0
0.5700000000000001 0.02 0.0
0.58 0.02 0.0
0.59 0.02 0.0
0.6 0.02 0.0
0.61 0.02 0.0
0.62 0.02 0.0
0.63 0.02 0.0
0.64 0.02 0.0
0.65 0.02 0.0
0.66 0.02 0.0
0.67 0.02 0.0
0.68 0.02 0.0
0.6900000000000001 0.02 0.0
0.7000000000000001 0.02 0.0
0.71 0.02 0.0
0.72 0.02 0.0
0.73 0.02 0.0
0.74 0.02 0.0
0.75 0.02 0.0
0.76 0.02 0.0
0.77 0.02 0.0
0.78 0.02 0.0
0.79 0.02 0.0
0.8 0.02 0.0
0.81 0.02 0.0
0.8200000000000001 0.02 0.0
0.8300000000000001 0.02 0.0
0.84 0.02 0.0
0.85 0.02 0.0
0.86 0.02 0.0
0.87 0.02 0.0
0.88 0.02 0.0
0.89 0.02 0.0
0.9 0.02 0.0
0.91 0.02 0.0
0.92 0.02 0.0
0.93 0.02 0.0
0.9400000000000001 0.02 0.0
0.9500000000000001 0.02 0.0
0.96 0.02 0.0
0.97 0.02 0.0
0.98 0.02 0.0
0.99 0.02 0.0
1.0 0.02 0.0
0.0 0.03 0.0
0.01 0.03 0.0
0.02 0.03 0.0
0.03 0.03 0.0
0.04 0.03 0.0
0.05 0.03 0.0
0.06 0.03 0.0
0.07 0.03 0.0
0.08 0.03 0.0
0.09 0.03 0.0
0.1 0.03 0.0
0.11 0.03 0.0
0.12 0.03 0.0
0.13 0.03 0.0
0.14 0.03 0.0
0.15 0.03 0.0
0.16 0.03 0.0
0.17 0.03 0.0
0.18 0.03 0.0
0.19 0.03 0.0
0.2 0.03 0.0
0.21 0.03 0.0
0.22 0.03 0.0
0.23 0.03 0.0
0.24 0.03 0.0
0.25 0.03 0.0
0.26 0.03 0.0
0.27 0.03 0.0
0.28 0.03 0.0
0.29 0.03 0.0
0.3 0.03 0.0
0.31 0.03 0.0
0.32 0.03 0.0
0.33 0.03 0.0
0.34 0.03 0.0
0.35000000000000003 0.03 0.0
0.36 0.03 0.0
0.37 0.03 0.0
0.38 0.03 0.0
0.39 0.03 0.0
0.4 0.03 0.0
0.41000000000000003 0.03 0.0
0.42 0.03 0.0
0.43 0.03 0.0
0.44 0.03 0.0
0.45 0.03 0.0
0.46 0.03 0.0
0.47000000000000003 0.03 0.0
0.48 0.03 0.0
0.49 0.03 0.0
0.5 0.03 0.0
0.51 0.03 0.0
0.52 0.03 0.0
0.53 0.03 0.0
0.54 0.03 0.0
0.55 0.03 0.0
0.56 0.03 0.0
0.5700000000000001 0.03 0.0
0.58 0.03 0.0
0.59 0.03 0.0
0.6 0.03 0.0
0.61 0.03 0.0
0.62 0.03 0.0
0.63 0.03 0.0
0.64 0.03 0.0
0.65 0.03 0.0
0.66 0.03 0.0
0.67 0.03 0.0
0.68 0.03 0.0
0.6900000000000001 0.03 0.0
0.7000000000000001 0.03 0.0
0.71 0.03 0.0
0.72 0.03 0.0
0.73 0.03 0.0
0.74 0.03 0.0
0.75 0.03 0.0
0.76 0.03 0.0
0.77 0.03 0.0
0.78 0.03 0.0
0.79 0.03 0.0
0.8 0.03 0.0
0.81 0.03 0.0
0.8200000000000001 0.03 0.0
0.8300000000000001 0.03 0.0
0.84 0.03 0.0
0.85 0.03 0.0
0.86 0.03 0.0
0.87 0.03 0.0
0.88 0.03 0.0
0.89 0.03 0.0
0.9 0.03 0.0
0.91 0.03 0.0
0.92 0.03 0.0
0.93 0.03 0.0
0.9400000000000001 0.03 0.0
0.9500000000000001 0.03 0.0
0.96 0.03 0.0
0.97 0.03 0.0
0.98 0.03 0.0
0.99 0.03 0.0
1.0 0.03 0.0
0.0 0.04 0.0
0.01 0.04 0.0
0.02 0.04 0.0
0.03 0.04 0.0
0.04 0.04 0.0
0.05 0.04 0.0
0.06 0.04 0.0
0.07 0.04 0.0
0.08 0.04 0.0
0.09 0.04 0.0
0.1 0.04 0.0
0.11 0.04 0.0
0.12 0.04 0.0
0.13 0.04 0.0
0.14 0.04 0.0
0.15 0.04 0.0
0.16 0.04 0.0
0.17 0.04 0.0
0.18 0.04 0.0
0.19 0.04 0.0
0.2 0.04 0.0
0.21 0.04 0.0
0.22 0.04 0.0
0.23 0.04 0.0
0.24 0.04 0.0
0.25 0.04 0.0
0.26 0.04 0.0
0.27 0.04 0.0
0.28 0.04 0.0
0.29 0.04 0.0
0.3 0.04 0.0
0.31 0.04 0.0
0.32 0.04 0.0
0.33 0.04 0.0
0.34 0.04 0.0
0.35000000000000003 0.04 0.0
0.36 0.04 0.0
0.37 0.04 0.0
0.38 0.04 0.0
0.39 0.04 0.0
0.4 0.04 0.0
0.41000000000000003 0.04 0.0
0.42 0.04 0.0
0.43 0.04 0.0
0.44 0.04 0.0
0.45 0.04 0.0
0.46 0.04 0.0
0.47000000000000003 0.04 0.0
0.48 0.04 0.0
0.49 0.04 0.0
0.5 0.04 0.0
0.51 0.04 0.0
0.52 0.04 0.0
0.53 0.04 0.0
0.54 0.04 0.0
0.55 0.04 0.0
0.56 0.04 0.0
0.5700000000000001 0.04 0.0
0.58 0.04 0.0
0.59 0.04 0.0
0.6 0.04 0.0
0.61 0.04 0.0
0.62 0.04 0.0
0.63 0.04 0.0
0.64 0.04 0.0
0.65 0.04 0.0
0.66 0.04 0.0
0.67 0.04 0.0
0.68 0.04 0.0
0.6900000000000001 0.04 0.0
0.7000000000000001 0.04 0.0
0.71 0.04 0.0
0.72 0.04 0.0
0.73 0.04 0.0
0.74 0.04 0.0
0.75 0.04 0.0
0.76 0.04 0.0
0.77 0.04 0.0
0.78 0.04 0.0
0.79 0.04 0.0
0.8 0.04 0.0
0.81 0.04 0.0
0.8200000000000001 0.04 0.0
0.8300000000000001 0.04 0.0
0.84 0.04 0.0
0.85 0.04 0.0
0.86 0.04 0.0
0.87 0.04 0.0
0.88 0.04 0.0
0.89 0.04 0.0
0.9 0.04 0.0
0.91 0.04 0.0
0.92 0.04 0.0
0.93 0.04 0.0
0.9400000000000001 0.04 0.0
0.9500000000000001 0.04 0.0
0.96 0.04 0.0
0.97 0.04 0.0
0.98 0.04 0.0
0.99 0.04 0.0
1.0 0.04 0.0
0.0 0.05 0.0
0.01 0.05 0.0
0.02 0.05 0.0
0.03 0.05 0.0
0.04 0.05 0.0
0.05 0.05 0.0
0.06 0.05 0.0
0.07 0.05 0.0
0.08 0.05 0.0
0.09 0.05 0.0
0.1 0.05 0.0
0.11 0.05 0.0
0.12 0.05 0.0
0.13 0.05 0.0
0.14 0.05 0.0
0.15 0.05 0.0
0.16 0.05 0.0
0.17 0.05 0.0
0.18 0.05 0.0
0.19 0.05 0.0
0.2 0.05 0.0
0.21 0.05 0.0
0.22 0.05 0.0
0.23 0.05 0.0
0.24 0.05 0.0
0.25 0.05 0.0
0.26 0.05 0.0
0.27 0.05 0.0
0.28 0.05 0.0
0.29 0.05 0.0
0.3 0.05 0.0
0.31 0.05 0.0
0.32 0.05 0.0
0.33 0.05 0.0
0.34 0.05 0.0
0.35000000000000003 0.05 0.0
0.36 0.05 0.0
0.37 0.05 0.0
0.38 0.05 0.0
0.39 0.05 0.0
0.4 0.05 0.0
0.41000000000000003 0.05 0.0
0.42 0.05 0.0
0.43 0.05 0.0
0.44 0.05 0.0
0.45 0.05 0.0
0.46 0.05 0.0
0.47000000000000003 0.05 0.0
0.48 0.05 0.0
0.49 0.05 0.0
0.5 0.05 0.0
0.51 0.05 0.0
0.52 0.05 0.0
0.53 0.05 0.0
0.54 0.05 0.0
0.55 0.05 0.0
0.56 0.05 0.0
0.5700000000000001 0.05 0.0
0.58 0.05 0.0
0.59 0.05 0.0
0.6 0.05 0.0
0.61 0.05 0.0
0.62 0.05 0.0
0.63 0.05 0.0
0.64 0.05 0.0
0.65 0.05 0.0
0.66 0.05 0.0
0.67 0.05 0.0
0.68 0.05 0.0
0.6900000000000001 0.05 0.0
0.7000000000000001 0.05 0.0
0.71 0.05 0.0
0.72 0.05 0.0
0.73 0.05 0.0
0.74 0.05 0.0
0.75 0.05 0.0
0.76 0.05 0.0
0.77 0.05 0.0
0.78 0.05 0.0
0.79 0.05 0.0
0.8 0.05 0.0
0.81 0.05 0.0
0.8200000000000001 0.05 0.0
0.8300000000000001 0.05 0.0
0.84 0.05 0.0
0.85 0.05 0.0
0.86 0.05 0.0
0.87 0.05 0.0
0.88 0.05 0.0
0.89 0.05 0.0
0.9 0.05 0.0
0.91 0.05 0.0
0.92 0.05 0.0
0.93 0.05 0.0
0.9400000000000001 0.05 0.0
0.9500000000000001 0.05 0.0
0.96 0.05 0.0
0.97 0.05 0.0
0.98 0.05 0.0
0.99 0.05 0.0
1.0 0.05 0.0
0.0 0.06 0.0
0.01 0.06 0.0
0.02 0.06 0.0
0.03 0.06 0.0
0.04 0.06 0.0
0.05 0.06 0.0
0.06 0.06 0.0
0.07 0.06 0.0
0.08 0.06 0.0
0.09 0.06 0.0
0.1 0.06 0.0
0.11 0.06 0.0
0.12 0.06 0.0
0.13 0.06 0.0
0.14 0.06 0.0
0.15 0.06 0.0
0.16 0.06 0.0
0.17 0.06 0.0
0.18 0.06 0.0
0.19 0.06 0.0
0.2 0.06 0.0
0.21 0.06 0.0
0.22 0.06 0.0
0.23 0.06 0.0
0.24 0.06 0.0
0.25 0.06 0.0
0.26 0.06 0.0
0.27 0.06 0.0
0.28 0.06 0.0
0.29 0.06 0.0
0.3 0.06 0.0
0.31 0.06 0.0
0.32 0.06 0.0
0.33 0.06 0.0
0.34 0.06 0.0
0.35000000000000003 0.06 0.0
0.36 0.06 0.0
0.37 0.06 0.0
0.38 0.06 0.0
0.39 0.06 0.0
0.4 0.06 0.0
0.41000000000000003 0.06 0.0
0.42 0.06 0.0
0.43 0.06 0.0
0.44 0.06 0.0
0.45 0.06 0.0
0.46 0.06 0.0
[...]
POINT_DATA  10201
FIELD  FlowField  5
Density    1 10201  double
9.628847545729638
9.49334464383772
9.200889838007468
8.886302239053693
8.57773306497079
8.292444372281407
8.05275794883378
7.882478430425055
7.79805748826292
7.800101205436706
7.870736337153639
7.9775367533314006
8.079709005823993
8.133058177860164
8.095536851567388
7.937768974056538
7.657530530509012
7.287497258899215
6.884430729951617
6.503256820504911
6.172013075121716
5.8742510748030705
5.535092827372871
5.009746745971112
4.1491402119639815
3.113860645022866
2.423742718147623
2.2169081046349293
2.188763370441808
2.18157868174558
2.17810135471276
2.1772187610673477
2.178702417578376
2.1824599217125016
2.188500712972676
2.1968992556174207
2.2077328775367286
2.2210231620816243
2.236707687469117
2.2546469518968473
2.2746529024496045
2.296521742266761
2.3200600135187006
2.3451004934647655
2.3715092383652823
2.3991868904710083
2.428067071200679
2.45811372680892
2.489318585120638
2.521699449575092
2.5552996360851767
2.590188657500045
2.626464181000981
2.6642552207616
2.7037264330157518
2.7450832230796025
2.7885771379203153
2.8345107125690348
2.8832406138466444
2.9351776990617546
2.990782749868727
3.0505579308244974
3.115039531855815
3.1848217488401493
3.2605449228121044
3.342573542710875
3.4308546786282728
3.5250842239890736
3.624666349950135
3.728698329236362
3.836039924422673
3.9453644861348334
4.055248674211677
4.164277169993889
4.271189981877983
4.375272553384904
4.477170774868499
4.579933688372225
4.68945546498041
4.8131685024437445
4.956770577778487
5.1204329963400435
5.297096661883732
5.474668405570659
5.640825622992507
5.787117960723153
5.910287466979728
6.011229146290031
6.093153762022046
6.160021552348457
6.215564455352499
6.2628420552393
6.3041432068396155
6.341053866736826
6.374573460194814
6.405207551022773
6.432876790622641
6.456892380996897
6.476057746920208
6.488705245374977
6.493163787045858
9.170378299142033
9.032486664420645
8.73573912981853
8.416332436380177
8.100685196003694
7.807225465591671
7.56226022441012
7.39483689222913
7.3253536252760645
7.354389716142599
7.458832747097031
7.597038678211243
7.717781037105253
7.767924018973875
7.701030166178965
7.49127987806849
7.14801168851453
6.717359336837431
6.2638496158170165
5.843194805671898
5.4824614237701725
5.170658046208366
4.85192934990086
4.415974456725932
3.7331590745480376
2.8746976903376376
2.2335147030356217
1.9994415609574032
1.9600331809423994
1.9508611012782398
1.9460102939207724
1.9437677424826652
1.9438948471319357
1.9463083884283319
1.9510179207468314
1.9580895558089642
1.9675902315020417
1.9795369562099565
1.9938737477664206
2.0104794473272065
2.02919384162445
2.0498467965873024
2.072280992837566
2.0963654655599253
2.122001252006978
2.1491219848642977
2.177691977825538
2.207703446578471
2.23917388481123
2.272144266842468
2.306678393833526
2.342863568405942
2.3808127403585178
2.42066823846481
2.4626071269945617
2.5068480566401
2.5536591828723587
2.6033662884994215
2.656359703140202
2.713098063060915
2.7741066241581596
2.8399682571974827
2.9113081383540003
2.9887858128632097
3.0730587655696913
3.1645733356068075
3.2634430673366057
3.369455291445017
3.4819078674559005
3.5996280956508713
3.721130736733487
3.8446913881968583
3.9685012911817106
4.090865208326515
4.2104440188135825
4.326689240896173
4.440566414973297
4.555339361860162
4.67665526473804
4.811035966441296
4.962820565019404
5.13102526728584
5.308347420498842
5.483505523397287
5.64553025127883
5.787213534257495
5.906096510920436
6.003444365751674
6.082558163222208
6.147349383023483
6.2014551314216115
6.247838621756398
6.288704291934649
6.32556652784743
6.359364473888517
6.390554738331702
6.419014454774505
6.443964323721522
6.464053793190365
6.477408178465577
6.482135482584474
8.172849430310752
8.023506634041382
7.705805286906068
7.368064726082158
7.034884654661614
6.726716132202588
6.477547803930244
6.32677513255803
6.301681623012545
6.3992035358790975
6.578707012565641
6.7724066399932195
6.905689760543344
6.914836001993389
6.760377494844115
6.439257226686603
5.98985156986742
5.479522597825275
4.977976486330185
4.534248015555314
4.1687169303969664
3.874776847370132
3.619984095418922
3.3420475563744576
2.950241969360263
2.401843592260154
1.8702538024018867
1.593385254703349
1.5297745995478191
1.5204844648413347
1.5175072307484914
1.5170225696878459
1.5187370840333814
1.5225872983814277
1.528588185359741
1.5367978162731606
1.5472736128540496
1.5600351840379825
1.5750493540601327
1.5922381384552389
1.6114994117266652
1.6327288033520584
1.6558362387572663
1.680755322739663
1.7074466051748085
1.7358969427687392
1.7661169155584477
1.7981374562660735
1.8320066306825056
1.867787136022463
1.9055546833870276
1.9453977319265898
1.9874190719886238
2.03173984363938
2.0785066157264884
2.127902042759735
2.180159266329482
2.2355795486865055
2.294551581050378
2.3575695558628293
2.425245620040685
2.4983110628963647
2.5775999681591166
2.664009422104238
2.758429201677573
2.86163046596002
2.9741310871468283
3.096022633809069
3.2267308696156514
3.3649824047054997
3.5089336702839486
3.6563014549855835
3.804641787665016
3.951733379351446
4.096020507887216
4.237119220047154
4.376308819668589
4.516733290202517
4.662819301644621
4.8185975852590825
4.985380672713674
5.1600606728238905
5.335342897107903
5.502086363078693
5.652412948313486
5.781829020633138
5.889575006014471
5.977663045462878
6.049527860286011
6.108917390735152
6.1592128065597604
6.203126128991906
6.242645015942928
6.279103243112211
6.313291342515283
6.345548207379579
6.375661463815327
6.40265791095656
6.4248276087126905
6.439801476402493
6.445150759945944
7.159187325904566
6.985445333939351
6.621975479560202
6.248407193101828
5.892971563181745
5.5778303754926695
5.343002718091814
5.235425350817064
5.282605547463354
5.464914390811827
5.710149379311711
5.919851446655052
6.007608860308054
5.923490147514403
5.660823861524182
5.253568256486743
4.764870796046202
4.265916371760726
3.8139613650213664
3.44094604492415
3.15405018791465
2.940477282779094
2.771673347986837
2.605458850719159
2.3825185636399313
2.0371694855825044
1.6113342340824999
1.3151977205259768
1.2266842399013416
1.2208488123691226
1.224904530036846
1.231113688727846
1.2390712093449425
1.2487470930599656
1.2601835404815134
1.2734579695393946
1.2886472500386135
1.3057991611566742
1.3249220115527789
1.3459918506290256
1.3689688725948985
1.3938142195812848
1.420502513512012
1.4490287228398582
1.479410139060226
1.5116851951382109
1.5459104424689836
1.5821549988454386
1.620495028551569
1.6610098583875152
1.7037775901388015
1.7488711086436495
1.7963556163001493
1.846288843267572
1.8987253878964825
1.9537268268523287
2.0113791152521783
2.07181816300661
2.1352631373196544
2.2020549310856468
2.272694499969794
2.3478728355913407
2.42848189070131
2.5155946488002217
2.610402203424843
2.714092577859894
2.827670472989669
2.951744968727752
3.086313191744232
3.2306056495933673
3.3830645889025623
3.5414891479903092
3.7033623791108172
3.8663213198089
4.028684076983681
4.1899102664147785
4.350814975818618
4.513310583634457
4.679524684050719
4.850433378735344
5.024570124683239
5.197593596649834
5.363176426838827
5.514881519447153
5.648048936227113
5.7607962712377585
5.853902617597776
5.929970743848243
5.992430607759684
6.044748651636272
6.0899502169754935
6.130413738519671
6.167846908656404
6.203359738542008
6.237569725797837
6.2706893681893625
6.302435509692408
6.331660911139783
6.356239330870485
6.373160040894853
6.379272182341318
6.291750093351483
6.0838630436216885
5.654862493694646
5.232870984447244
4.85853893721036
4.555606925866142
4.365792438230411
4.333191999378664
4.468830059678256
4.7201433216694335
4.980449709407869
5.139917180308883
5.1321271768231
4.945450837260469
4.611251627212569
4.187533699734206
3.7409903116223036
3.328912511279463
2.9874963331924413
2.729609170629238
2.5482950904005826
2.422925610723582
2.3264491942124916
2.228999871962506
2.090297146144303
1.849827365463807
1.4953436088828558
1.1938678547388824
1.0831784232412367
1.0784231035081633
1.0881865074367445
1.0997207686480952
1.1124928457693353
1.1265264986875774
1.1419152188672719
1.158780618388309
1.1772400035937909
1.197382992688313
1.219265135799261
1.2429164298672573
1.268356863116113
1.2956115195152278
1.324722176393283
1.3557523611077407
1.3887880116080578
1.42393730541159
1.4613276495323306
1.5011002899492014
1.5434033813685266
1.5883836769895296
1.6361770691426558
1.6868983160197257
1.7406307272533956
1.7974171944094308
1.857254686142036
1.9200950568358623
1.9858554979352476
2.0544418297516245
2.1257866625153583
2.1999019079012534
2.276941168716425
2.3572626839884467
2.4414788710544992
2.530475591968098
2.625384652457851
2.7274963397816476
2.838106855043342
2.9583082542792
3.0887310963278374
3.2293133564439613
3.379207835118456
3.5368690267765395
3.7003177397546914
3.8675393084562577
4.036906397548319
4.207477775152633
4.379015626028739
4.551621122888349
4.725034528728279
4.897856289727648
5.067100883664727
5.228432980558617
5.377104334015136
5.5091947628681295
5.62258037512088
5.717249160820789
5.794972960530792
5.858624282210439
5.911463057266376
5.956592308704261
5.99663794229447
6.033621687943864
6.068965738205938
6.103568187704099
6.137899153922859
6.172076942224463
6.205782295898532
6.237737601552304
6.265348880751431
6.2847570372070205
6.291849044935452
5.571135387828768
5.32403398122808
4.821115566921566
4.352682588099562
3.9788719175477056
3.7217189334135554
3.613135528159425
3.6761654622832274
3.886740603919123
4.154975770812824
4.361403137914325
4.420177433863203
4.3084335844125095
4.053156485681406
3.707120680971833
3.3306504641238117
2.9772726615527767
2.6832029774588873
2.4636582284952735
2.315227446386219
2.221439834514757
2.160230854397013
2.110521172943565
2.0527208148239553
1.9575538708662064
1.770300169267945
1.4564228069158316
1.1512638088619898
1.0219977658709805
1.0149762889711487
1.0270126906359989
1.0405505184894515
1.054958566769297
1.0703188772771366
1.0867768521583159
1.1044953519542238
1.123624427026528
1.1442832579747306
1.1665593183662784
1.1905204973651213
1.2162317061312362
1.2437680558028732
1.2732255318796584
1.3047291653020174
1.3384356793568315
1.3745327044874542
1.4132352229161285
1.454781221270929
1.499424645318129
1.5474240332312328
1.599028937285469
1.6544637129500757
1.7139086950625213
1.777479879860841
1.8452093702672427
1.9170302097831278
1.992770582638111
2.0721632115628075
2.1548754347373382
2.2405631242077084
2.3289468486401734
2.41990179056092
2.5135453406450114
2.610300431008742
2.71091250049803
2.8164078735164577
2.9279871983765484
3.046849302837914
3.173971440873864
3.3098912268365126
3.4545292367520903
3.607134545455014
3.766422248373425
3.930835168626301
4.098807926277466
4.268928375254127
4.439905741490441
4.610330622691827
4.778325128240324
4.941282242886321
5.095907126197608
5.238652352808402
5.366427759561841
5.477297407351136
5.570874889131884
5.648291942245482
5.7118186868951275
5.764328538342965
5.808793335646569
5.847916018382643
5.883926557612886
5.91851557687548
5.952859876692032
5.987693238948819
6.023381534202585
6.059972571296543
6.097101178517444
6.1333201593597115
6.165417973505947
6.188373653862339
6.1968301934791405
4.966631212937539
4.679031860711124
4.108473921466922
3.617683519306229
3.281152511308232
3.1056178585215806
3.096506108735743
3.2412238595203777
3.4765923524249436
3.6944818137235362
3.798302996987175
3.7499784839175945
3.56747090726914
3.2973651715119945
2.993033001821858
2.7021948672665315
2.458672489183695
2.278278445939032
2.159998777395275
2.0908709614442436
2.0525478784123985
2.02760937292821
2.0027568672890066
1.965865679855002
1.8935394355785915
1.7345305515676577
1.4434500753905313
1.1342947442725517
0.9901590974007504
0.9793901342242605
0.9914348753367148
1.004838658969892
1.0189154046570472
1.033791462065971
1.0496446419233965
1.0666565788770708
1.084985885237484
1.104756917872547
1.1260655281547605
1.1489923570021756
1.1736202308266073
1.2000518802092897
1.2284206301295957
1.258898443296014
1.2917007652226413
1.327086029273394
1.3653531583119323
1.4068375437851492
1.4519045444763685
1.5009395334392672
1.5543336673049486
1.612464594935278
1.675671635311566
1.744225716205561
1.8182956568444946
1.8979142319421496
1.9829497291055749
2.0730909454877753
2.1678548834661773
2.2666255637051256
2.368728153518628
2.4735345239387376
2.5805855180334416
2.6897047763990543
2.8010737032121904
2.915240372069806
3.0330471166282322
3.1554846671220074
3.283516262619408
3.417894924206537
3.5589801420899625
3.7066107577573026
3.8600717888702563
4.0181729617969175
4.17939510372232
4.341994977408507
4.5040202843784325
4.6632532912779325
4.817156936457516
4.962928121251492
5.097732249008566
5.219102421618208
5.325383970947952
5.416058320853509
5.491824224710654
5.554419850305307
5.606268333035951
5.650071751735984
5.688460006759492
5.723751189301431
5.757830876290549
5.7921248049953595
5.827628488629949
5.8649575603079835
5.904379862479635
5.945823213882475
5.988759817110238
6.031414440635848
6.069768140732978
6.097392408253923
6.1075777484324325
4.461138906566827
4.1388887848202565
3.5241203152462868
3.0487210025776044
2.7822995846791
2.6999486811444293
2.7718959483787455
2.9496779789419736
3.147780633148414
3.2722202856008025
3.271532055044763
3.1508638504619224
2.948493757065241
2.71074169585245
2.4789391253155584
2.2831284485149697
2.138637950404256
2.0462419920407844
1.9960344477607304
1.9730853620716673
1.962822904398503
1.9544200344300224
1.9408821208996714
1.914411104085095
1.8544777176763128
1.7118566920167624
1.4348705289117933
1.122338614201257
0.9668445139984791
0.9523994106710403
0.9635857687373599
0.9760468165417204
0.9890859056009768
1.0028519655038552
1.0175333702162934
1.0333080937577428
1.050322001335456
1.0686836309209906
1.0884732878889232
1.1097626872865423
1.1326358106357084
1.1572063303802314
1.1836284481719814
1.2121025040237337
1.2428797837210976
1.2762649470445477
1.3126165346528322
1.3523456844067314
1.395912460975123
1.443818665838111
1.496595796980956
1.5547866467176132
1.618919086285659
1.6894710751050241
1.7668270444243954
1.8512277379568371
1.942718423499896
2.04110388139392
2.1459219477858973
2.2564491834281153
2.371750490147786
2.490777472459218
2.6125078217635544
2.736102590967354
2.8610456541965448
2.98722623350934
3.114935128328259
3.244768063923771
3.3774551857923596
3.513658211098221
3.6537966038917116
3.7979201211459075
3.94560724062117
4.095922546771575
4.247453687741123
4.398393334286599
4.54662573432272
4.689810915050373
4.825502524407195
4.951334248571611
5.06527876528076
5.1659351925235715
5.252763709032202
5.326187060472107
5.387521474086939
5.438759931513769
5.482275970191876
5.520527441883571
5.555819393929049
5.5901531367524555
5.625155761607794
5.6620564689873545
5.701688568118406
5.74450296337021
5.790573485207938
5.839591873855956
5.89073658671653
5.941760824761294
5.987708709760759
6.020665074225267
6.032736543195564
4.052632278273381
3.7086838719587245
3.080209432928008
2.6476976952880524
2.4577156080437543
2.448565549978633
2.5586720670476186
2.71683374678736
2.8412272246949755
2.8728994552247817
2.802194947405733
2.6569642022592275
2.4765108131785416
2.2962569878613244
2.142150972737416
2.028363148990617
1.9570675220296545
1.9210792861879626
1.9085219568682548
1.9073979460941213
1.9085331181616396
1.90642010420169
1.8977848366838344
1.8767783661262332
1.8242183977412798
1.6922629873087915
1.425102294143807
1.110137971775808
0.9462448248878319
0.9288673028016774
0.9390395968028901
0.9503969509752518
0.9622836985640929
0.9748569712356436
0.9882980119033578
1.0027673207219057
1.0183829248664953
1.0352210826144022
1.0533347162026017
1.072778847270389
1.0936302678105772
1.1159993837011792
1.1400398230646005
1.165956152938918
1.19401004227257
1.2245245038861303
1.2578868944573665
1.294550788100587
1.3350361266278417
1.3799264725603035
1.429861773392899
1.4855246389373367
1.5476178709941055
1.616831032748328
1.6937944520782802
1.779020546441844
1.872835055850629
1.9753047954813097
2.08617351357963
2.204822146285805
2.330271976956011
2.4612460910008083
2.596293872692363
2.7339655751003447
2.873003984883409
3.012506228332377
3.1520094574138273
3.2914730937985004
3.4311601055705765
3.5714494878096863
3.712628971146107
3.8547189748356816
3.9973664046052795
4.1397893707592806
4.280764345262667
4.418681658920522
4.551664141521608
4.677723623232666
4.794941306888202
4.901673404970591
4.996762417656829
5.079713706751731
5.150792184508213
5.211008782552117
5.2619970521408606
5.305811847443664
5.344701077693401
5.380897565028231
5.416452340308133
5.453121139458119
5.492303767876935
5.535016448621711
5.581876994065995
5.633089697950437
5.688434603660246
5.747260289302097
5.808342929741942
5.86885459802436
5.922854635455505
5.961071240013787
5.9748911728919225
3.738070913135629
3.3850612060144805
2.7645346503135007
2.3809407337006134
2.251324124416928
2.282025513188097
2.3895207079284106
2.4984379789037794
2.5488315489820312
2.5172983947815775
2.4187479962674914
2.2852333610485793
2.147382034985523
2.0276134464911424
1.938712322967917
1.8838329680247448
1.8582003832898801
1.8526107759608879
1.857281681083121
1.8644346667967973
1.8692024389598698
1.8692370735475938
1.862964903820441
1.8452335725135949
1.7976281501845937
1.6734198858224214
1.4136982064404267
1.0969880126672837
0.9270057895445118
0.9075982198249536
0.9168443264864461
0.9271667263895431
0.9379945200691576
0.9494898847697635
0.9618166148328785
0.975103954859829
0.9894314591288116
1.0048388835940663
1.0213524448735074
1.03900644915674
1.0578588205657584
1.0780029430754465
1.099576388092649
1.122768903721025
1.1478296166942703
1.1750725978058258
1.2048818171679965
1.237715785177441
1.2741114366511943
1.3146862099829786
1.3601367526669157
1.4112321388123752
1.4687989583400718
1.5336952433402558
1.6067701609901763
1.6888070880231862
1.7804495600222028
1.8821131156045632
1.993891399577346
2.1154714979807516
2.246079603535204
2.3844806432189127
2.5290506628716205
2.6779260618243694
2.829210749427191
2.9811982115301663
3.132551836246949
3.2823933336752913
3.430275549960761
3.576052633538444
3.719690596496452
3.8610737713087455
3.9998545075396565
4.135375335259247
4.266662364806742
4.392474521048769
4.511410747982246
4.622066714602097
4.72321410578629
4.813977134987057
4.893979548155392
4.963436545104628
5.023173462035407
5.074565946744604
5.119412704820171
5.159766553447701
5.197756064348594
5.23542538911168
5.274607881538616
5.3168341346906125
5.363268372749966
5.414673277851678
5.471386485110236
5.533292062842663
5.599790924582974
5.669788422999195
5.741544088688027
5.811561857038148
5.872994800342873
5.915599548600889
5.930739204136048
3.504210145584029
3.15021295410994
2.5460932346087306
2.2030530279841885
2.1110203178947913
2.152430623631504
2.233960683859339
2.290464101583671
2.287968057387768
2.2271638945046375
2.1312241199916007
2.026813725634705
1.933987521773058
1.864379666257723
1.8217465096022587
1.8032839569984858
1.8021114805474432
1.810329777787229
1.8213311733728124
1.8307237747326832
1.8362382930870484
1.837046579992702
1.832183888226459
1.8167248478997826
1.7728714763017563
1.6548341007659406
1.4010197727414477
1.082931443444749
0.9086390553056534
0.8880768909785286
0.8965483546596383
0.905983009553832
0.9159218621153882
0.9265270865090376
0.9379420473980462
0.950254669708699
0.9635022505760367
0.9776930395057774
0.9928258025061792
1.0089097028322973
1.0259790879217783
1.0441030894719971
1.0633928677046875
1.084009705217521
1.106172983497509
1.1301663187779347
1.156343533415651
1.1851350766084603
1.2170546789882988
1.2527054197475374
1.2927838712277235
1.3380804272107416
1.389473283219884
1.447912858382633
1.5143928778752564
1.5899041719626266
1.675367966473606
1.7715476580966503
1.878942387302487
1.997672360673155
2.1273740892962745
2.267131188835057
2.4154691215552857
2.570435624517464
2.729769999188622
2.8911368336687318
3.052373085228285
3.211685442949185
3.3677465449907293
3.519671776413814
3.666898037124577
3.809014431748717
3.9456012694956684
4.0761211214949