# vtk DataFile Version 3.0 
shock_diffraction_time_series_405_.vtk
ASCII
DATASET UNSTRUCTURED_GRID
POINTS         10201 double
0.0 0.0 0.0
0.01 0.0 0.0
0.02 0.0 0.0
0.03 0.0 0.0
0.04 0.0 0.0
0.05 0.0 0.0
0.06 0.0 0.0
0.07 0.0 0.0
0.08 0.0 0.0
0.09 0.0 0.0
0.1 0.0 0.0
0.11 0.0 0.0
0.12 0.0 0.0
0.13 0.0 0.0
0.14 0.0 0.0
0.15 0.0 0.0
0.16 0.0 0.0
0.17 0.0 0.0
0.18 0.0 0.0
0.19 0.0 0.0
0.2 0.0 0.0
0.21 0.0 0.0
0.22 0.0 0.0
0.23 0.0 0.0
0.24 0.0 0.0
0.25 0.0 0.0
0.26 0.0 0.0
0.27 0.0 0.0
0.28 0.0 0.0
0.29 0.0 0.0
0.3 0.0 0.0
0.31 0.0 0.0
0.32 0.0 0.0
0.33 0.0 0.0
0.34 0.0 0.0
0.35000000000000003 0.0 0.0
0.36 0.0 0.0
0.37 0.0 0.0
0.38 0.0 0.0
0.39 0.0 0.0
0.4 0.0 0.0
0.41000000000000003 0.0 0.0
0.42 0.0 0.0
0.43 0.0 0.0
0.44 0.0 0.0
0.45 0.0 0.0
0.46 0.0 0.0
0.47000000000000003 0.0 0.0
0.48 0.0 0.0
0.49 0.0 0.0
0.5 0.0 0.0
0.51 0.0 0.0
0.52 0.0 0.0
0.53 0.0 0.0
0.54 0.0 0.0
0.55 0.0 0.0
0.56 0.0 0.0
0.5700000000000001 0.0 0.0
0.58 0.0 0.0
0.59 0.0 0.0
0.6 0.0 0.0
0.61 0.0 0.0
0.62 0.0 0.0
0.63 0.0 0.0
0.64 0.0 0.0
0.65 0.0 0.0
0.66 0.0 0.0
0.67 0.0 0.0
0.68 0.0 0.0
0.6900000000000001 0.0 0.0
0.7000000000000001 0.0 0.0
0.71 0.0 0.0
0.72 0.0 0.0
0.73 0.0 0.0
0.74 0.0 0.0
0.75 0.0 0.0
0.76 0.0 0.0
0.77 0.0 0.0
0.78 0.0 0.0
0.79 0.0 0.0
0.8 0.0 0.0
0.81 0.0 0.0
0.8200000000000001 0.0 0.0
0.8300000000000001 0.0 0.0
0.84 0.0 0.0
0.85 0.0 0.0
0.86 0.0 0.0
0.87 0.0 0.0
0.88 0.0 0.0
0.89 0.0 0.0
0.9 0.0 0.0
0.91 0.0 0.0
0.92 0.0 0.0
0.93 0.0 0.0
0.9400000000000001 0.0 0.0
0.9500000000000001 0.0 0.0
0.96 0.0 0.0
0.97 0.0 0.0
0.98 0.0 0.0
0.99 0.0 0.0
1.0 0.0 0.0
0.0 0.01 0.0
0.01 0.01 0.0
0.02 0.01 0.0
0.03 0.01 0.0
0.04 0.01 0.0
0.05 0.01 0.0
0.06 0.01 0.0
0.07 0.01 0.0
0.08 0.01 0.0
0.09 0.01 0.0
0.1 0.01 0.0
0.11 0.01 0.0
0.12 0.01 0.0
0.13 0.01 0.0
0.14 0.01 0.0
0.15 0.01 0.0
0.16 0.01 0.0
0.17 0.01 0.0
0.18 0.01 0.0
0.19 0.01 0.0
0.2 0.01 0.0
0.21 0.01 0.0
0.22 0.01 0.0
0.23 0.01 0.0
0.24 0.01 0.0
0.25 0.01 0.0
0.26 0.01 0.0
0.27 0.01 0.0
0.28 0.01 0.0
0.29 0.01 0.0
0.3 0.01 0.0
0.31 0.01 0.0
0.32 0.01 0.0
0.33 0.01 0.0
0.34 0.01 0.0
0.35000000000000003 0.01 0.0
0.36 0.01 0.0
0.37 0.01 0.0
0.38 0.01 0.0
0.39 0.01 0.0
0.4 0.01 0.0
0.41000000000000003 0.01 0.0
0.42 0.01 0.0
0.43 0.01 0.0
0.44 0.01 0.0
0.45 0.01 0.0
0.46 0.01 0.0
0.47000000000000003 0.01 0.0
0.48 0.01 0.0
0.49 0.01 0.0
0.5 0.01 0.0
0.51 0.01 0.0
0.52 0.01 0.0
0.53 0.01 0.0
0.54 0.01 0.0
0.55 0.01 0.0
0.56 0.01 0.0
0.5700000000000001 0.01 0.0
0.58 0.01 0.0
0.59 0.01 0.0
0.6 0.01 0.0
0.61 0.01 0.0
0.62 0.01 0.0
0.63 0.01 0.0
0.64 0.01 0.0
0.65 0.01 0.0
0.66 0.01 0.0
0.67 0.01 0.0
0.68 0.01 0.0
0.6900000000000001 0.01 0.0
0.7000000000000001 0.01 0.0
0.71 0.01 0.0
0.72 0.01 0.0
0.73 0.01 0.0
0.74 0.01 0.0
0.75 0.01 0.0
0.76 0.01 0.0
0.77 0.01 0.0
0.78 0.01 0.0
0.79 0.01 0.0
0.8 0.01 0.0
0.81 0.01 0.0
0.8200000000000001 0.01 0.0
0.8300000000000001 0.01 0.0
0.84 0.01 0.0
0.85 0.01 0.0
0.86 0.01 0.0
0.87 0.01 0.0
0.88 0.01 0.0
0.89 0.01 0.0
0.9 0.01 0.0
0.91 0.01 0.0
0.92 0.01 0.0
0.93 0.01 0.0
0.9400000000000001 0.01 0.0
0.9500000000000001 0.01 0.0
0.96 0.01 0.0
0.97 0.01 0.0
0.98 0.01 0.0
0.99 0.01 0.0
1.0 0.01 0.0
0.0 0.02 0.0
0.01 0.02 0.0
0.02 0.02 0.0
0.03 0.02 0.0
0.04 0.02 0.0
0.05 0.02 0.0
0.06 0.02 0.0
0.07 0.02 0.0
0.08 0.02 0.0
0.09 0.02 0.0
0.1 0.02 0.0
0.11 0.02 0.0
0.12 0.02 0.0
0.13 0.02 0.0
0.14 0.02 0.0
0.15 0.02 0.0
0.16 0.02 0.0
0.17 0.02 0.0
0.18 0.02 0.0
0.19 0.02 0.0
0.2 0.02 0.0
0.21 0.02 0.0
0.22 0.02 0.0
0.23 0.02 0.0
0.24 0.02 0.0
0.25 0.02 0.0
0.26 0.02 0.0
0.27 0.02 0.0
0.28 0.02 0.0
0.29 0.02 0.0
0.3 0.02 0.0
0.31 0.02 0.0
0.32 0.02 0.0
0.33 0.02 0.0
0.34 0.02 0.0
0.35000000000000003 0.02 0.0
0.36 0.02 0.0
0.37 0.02 0.0
0.38 0.02 0.0
0.39 0.02 0.0
0.4 0.02 0.0
0.41000000000000003 0.02 0.0
0.42 0.02 0.0
0.43 0.02 0.0
0.44 0.02 0.0
0.45 0.02 0.0
0.46 0.02 0.0
0.47000000000000003 0.02 0.0
0.48 0.02 0.0
0.49 0.02 0.0
0.5 0.02 0.0
0.51 0.02 0.0
0.52 0.02 0.0
0.53 0.02 0.0
0.54 0.02 0.0
0.55 0.02 0.0
0.56 0.02 0.0
0.5700000000000001 0.02 0.0
0.58 0.02 0.0
0.59 0.02 0.0
0.6 0.02 0.0
0.61 0.02 0.0
0.62 0.02 0.0
0.63 0.02 0.0
0.64 0.02 0.0
0.65 0.02 0.0
0.66 0.02 0.0
0.67 0.02 0.0
0.68 0.02 0.0
0.6900000000000001 0.02 0.0
0.7000000000000001 0.02 0.0
0.71 0.02 0.0
0.72 0.02 0.0
0.73 0.02 0.0
0.74 0.02 0.0
0.75 0.02 0.0
0.76 0.02 0.0
0.77 0.02 0.0
0.78 0.02 0.0
0.79 0.02 0.0
0.8 0.02 0.0
0.81 0.02 0.0
0.8200000000000001 0.02 0.0
0.8300000000000001 0.02 0.0
0.84 0.02 0.0
0.85 0.02 0.0
0.86 0.02 0.0
0.87 0.02 0.0
0.88 0.02 0.0
0.89 0.02 0.0
0.9 0.02 0.0
0.91 0.02 0.0
0.92 0.02 0.0
0.93 0.02 0.0
0.9400000000000001 0.02 0.0
0.9500000000000001 0.02 0.0
0.96 0.02 0.0
0.97 0.02 0.0
0.98 0.02 0.0
0.99 0.02 0.0
1.0 0.02 0.0
0.0 0.03 0.0
0.01 0.03 0.0
0.02 0.03 0.0
0.03 0.03 0.0
0.04 0.03 0.0
0.05 0.03 0.0
0.06 0.03 0.0
0.07 0.03 0.0
0.08 0.03 0.0
0.09 0.03 0.0
0.1 0.03 0.0
0.11 0.03 0.0
0.12 0.03 0.0
0.13 0.03 0.0
0.14 0.03 0.0
0.15 0.03 0.0
0.16 0.03 0.0
0.17 0.03 0.0
0.18 0.03 0.0
0.19 0.03 0.0
0.2 0.03 0.0
0.21 0.03 0.0
0.22 0.03 0.0
0.23 0.03 0.0
0.24 0.03 0.0
0.25 0.03 0.0
0.26 0.03 0.0
0.27 0.03 0.0
0.28 0.03 0.0
0.29 0.03 0.0
0.3 0.03 0.0
0.31 0.03 0.0
0.32 0.03 0.0
0.33 0.03 0.0
0.34 0.03 0.0
0.35000000000000003 0.03 0.0
0.36 0.03 0.0
0.37 0.03 0.0
0.38 0.03 0.0
0.39 0.03 0.0
0.4 0.03 0.0
0.41000000000000003 0.03 0.0
0.42 0.03 0.0
0.43 0.03 0.0
0.44 0.03 0.0
0.45 0.03 0.0
0.46 0.03 0.0
0.47000000000000003 0.03 0.0
0.48 0.03 0.0
0.49 0.03 0.0
0.5 0.03 0.0
0.51 0.03 0.0
0.52 0.03 0.0
0.53 0.03 0.0
0.54 0.03 0.0
0.55 0.03 0.0
0.56 0.03 0.0
0.5700000000000001 0.03 0.0
0.58 0.03 0.0
0.59 0.03 0.0
0.6 0.03 0.0
0.61 0.03 0.0
0.62 0.03 0.0
0.63 0.03 0.0
0.64 0.03 0.0
0.65 0.03 0.0
0.66 0.03 0.0
0.67 0.03 0.0
0.68 0.03 0.0
0.6900000000000001 0.03 0.0
0.7000000000000001 0.03 0.0
0.71 0.03 0.0
0.72 0.03 0.0
0.73 0.03 0.0
0.74 0.03 0.0
0.75 0.03 0.0
0.76 0.03 0.0
0.77 0.03 0.0
0.78 0.03 0.0
0.79 0.03 0.0
0.8 0.03 0.0
0.81 0.03 0.0
0.8200000000000001 0.03 0.0
0.8300000000000001 0.03 0.0
0.84 0.03 0.0
0.85 0.03 0.0
0.86 0.03 0.0
0.87 0.03 0.0
0.88 0.03 0.0
0.89 0.03 0.0
0.9 0.03 0.0
0.91 0.03 0.0
0.92 0.03 0.0
0.93 0.03 0.0
0.9400000000000001 0.03 0.0
0.9500000000000001 0.03 0.0
0.96 0.03 0.0
0.97 0.03 0.0
0.98 0.03 0.0
0.99 0.03 0.0
1.0 0.03 0.0
0.0 0.04 0.0
0.01 0.04 0.0
0.02 0.04 0.0
0.03 0.04 0.0
0.04 0.04 0.0
0.05 0.04 0.0
0.06 0.04 0.0
0.07 0.04 0.0
0.08 0.04 0.0
0.09 0.04 0.0
0.1 0.04 0.0
0.11 0.04 0.0
0.12 0.04 0.0
0.13 0.04 0.0
0.14 0.04 0.0
0.15 0.04 0.0
0.16 0.04 0.0
0.17 0.04 0.0
0.18 0.04 0.0
0.19 0.04 0.0
0.2 0.04 0.0
0.21 0.04 0.0
0.22 0.04 0.0
0.23 0.04 0.0
0.24 0.04 0.0
0.25 0.04 0.0
0.26 0.04 0.0
0.27 0.04 0.0
0.28 0.04 0.0
0.29 0.04 0.0
0.3 0.04 0.0
0.31 0.04 0.0
0.32 0.04 0.0
0.33 0.04 0.0
0.34 0.04 0.0
0.35000000000000003 0.04 0.0
0.36 0.04 0.0
0.37 0.04 0.0
0.38 0.04 0.0
0.39 0.04 0.0
0.4 0.04 0.0
0.41000000000000003 0.04 0.0
0.42 0.04 0.0
0.43 0.04 0.0
0.44 0.04 0.0
0.45 0.04 0.0
0.46 0.04 0.0
0.47000000000000003 0.04 0.0
0.48 0.04 0.0
0.49 0.04 0.0
0.5 0.04 0.0
0.51 0.04 0.0
0.52 0.04 0.0
0.53 0.04 0.0
0.54 0.04 0.0
0.55 0.04 0.0
0.56 0.04 0.0
0.5700000000000001 0.04 0.0
0.58 0.04 0.0
0.59 0.04 0.0
0.6 0.04 0.0
0.61 0.04 0.0
0.62 0.04 0.0
0.63 0.04 0.0
0.64 0.04 0.0
0.65 0.04 0.0
0.66 0.04 0.0
0.67 0.04 0.0
0.68 0.04 0.0
0.6900000000000001 0.04 0.0
0.7000000000000001 0.04 0.0
0.71 0.04 0.0
0.72 0.04 0.0
0.73 0.04 0.0
0.74 0.04 0.0
0.75 0.04 0.0
0.76 0.04 0.0
0.77 0.04 0.0
0.78 0.04 0.0
0.79 0.04 0.0
0.8 0.04 0.0
0.81 0.04 0.0
0.8200000000000001 0.04 0.0
0.8300000000000001 0.04 0.0
0.84 0.04 0.0
0.85 0.04 0.0
0.86 0.04 0.0
0.87 0.04 0.0
0.88 0.04 0.0
0.89 0.04 0.0
0.9 0.04 0.0
0.91 0.04 0.0
0.92 0.04 0.0
0.93 0.04 0.0
0.9400000000000001 0.04 0.0
0.9500000000000001 0.04 0.0
0.96 0.04 0.0
0.97 0.04 0.0
0.98 0.04 0.0
0.99 0.04 0.0
1.0 0.04 0.0
0.0 0.05 0.0
0.01 0.05 0.0
0.02 0.05 0.0
0.03 0.05 0.0
0.04 0.05 0.0
0.05 0.05 0.0
0.06 0.05 0.0
0.07 0.05 0.0
0.08 0.05 0.0
0.09 0.05 0.0
0.1 0.05 0.0
0.11 0.05 0.0
0.12 0.05 0.0
0.13 0.05 0.0
0.14 0.05 0.0
0.15 0.05 0.0
0.16 0.05 0.0
0.17 0.05 0.0
0.18 0.05 0.0
0.19 0.05 0.0
0.2 0.05 0.0
0.21 0.05 0.0
0.22 0.05 0.0
0.23 0.05 0.0
0.24 0.05 0.0
0.25 0.05 0.0
0.26 0.05 0.0
0.27 0.05 0.0
0.28 0.05 0.0
0.29 0.05 0.0
0.3 0.05 0.0
0.31 0.05 0.0
0.32 0.05 0.0
0.33 0.05 0.0
0.34 0.05 0.0
0.35000000000000003 0.05 0.0
0.36 0.05 0.0
0.37 0.05 0.0
0.38 0.05 0.0
0.39 0.05 0.0
0.4 0.05 0.0
0.41000000000000003 0.05 0.0
0.42 0.05 0.0
0.43 0.05 0.0
0.44 0.05 0.0
0.45 0.05 0.0
0.46 0.05 0.0
0.47000000000000003 0.05 0.0
0.48 0.05 0.0
0.49 0.05 0.0
0.5 0.05 0.0
0.51 0.05 0.0
0.52 0.05 0.0
0.53 0.05 0.0
0.54 0.05 0.0
0.55 0.05 0.0
0.56 0.05 0.0
0.5700000000000001 0.05 0.0
0.58 0.05 0.0
0.59 0.05 0.0
0.6 0.05 0.0
0.61 0.05 0.0
0.62 0.05 0.0
0.63 0.05 0.0
0.64 0.05 0.0
0.65 0.05 0.0
0.66 0.05 0.0
0.67 0.05 0.0
0.68 0.05 0.0
0.6900000000000001 0.05 0.0
0.7000000000000001 0.05 0.0
0.71 0.05 0.0
0.72 0.05 0.0
0.73 0.05 0.0
0.74 0.05 0.0
0.75 0.05 0.0
0.76 0.05 0.0
0.77 0.05 0.0
0.78 0.05 0.0
0.79 0.05 0.0
0.8 0.05 0.0
0.81 0.05 0.0
0.8200000000000001 0.05 0.0
0.8300000000000001 0.05 0.0
0.84 0.05 0.0
0.85 0.05 0.0
0.86 0.05 0.0
0.87 0.05 0.0
0.88 0.05 0.0
0.89 0.05 0.0
0.9 0.05 0.0
0.91 0.05 0.0
0.92 0.05 0.0
0.93 0.05 0.0
0.9400000000000001 0.05 0.0
0.9500000000000001 0.05 0.0
0.96 0.05 0.0
0.97 0.05 0.0
0.98 0.05 0.0
0.99 0.05 0.0
1.0 0.05 0.0
0.0 0.06 0.0
0.01 0.06 0.0
0.02 0.06 0.0
0.03 0.06 0.0
0.04 0.06 0.0
0.05 0.06 0.0
0.06 0.06 0.0
0.07 0.06 0.0
0.08 0.06 0.0
0.09 0.06 0.0
0.1 0.06 0.0
0.11 0.06 0.0
0.12 0.06 0.0
0.13 0.06 0.0
0.14 0.06 0.0
0.15 0.06 0.0
0.16 0.06 0.0
0.17 0.06 0.0
0.18 0.06 0.0
0.19 0.06 0.0
0.2 0.06 0.0
0.21 0.06 0.0
0.22 0.06 0.0
0.23 0.06 0.0
0.24 0.06 0.0
0.25 0.06 0.0
0.26 0.06 0.0
0.27 0.06 0.0
0.28 0.06 0.0
0.29 0.06 0.0
0.3 0.06 0.0
0.31 0.06 0.0
0.32 0.06 0.0
0.33 0.06 0.0
0.34 0.06 0.0
0.35000000000000003 0.06 0.0
0.36 0.06 0.0
0.37 0.06 0.0
0.38 0.06 0.0
0.39 0.06 0.0
0.4 0.06 0.0
0.41000000000000003 0.06 0.0
0.42 0.06 0.0
0.43 0.06 0.0
0.44 0.06 0.0
0.45 0.06 0.0
0.46 0.06 0.0
[...]
POINT_DATA  10201
FIELD  FlowField  4
Density    1 10201  double
3.7953186061669353
3.7433025186399567
3.630488022955452
3.503824011828571
3.3687434085344963
3.229969331621619
3.0929996729487375
2.9619554850846175
2.839346280020549
2.726416310559136
2.6235905841640115
2.530848912998776
2.4479807467520533
2.3747335942058667
2.31088760019228
2.256291196259166
2.210875659460787
2.1746421294581224
2.1476457571198564
2.129974185673123
2.121723695991411
2.122986638140663
2.1338253645753373
2.154236814591309
2.1841149108512132
2.223213874941486
2.2711356257561044
2.3273863875132363
2.3914259072681636
2.46264963113228
2.5403679655383664
2.6237962389060057
2.712042799582
2.804095471246322
2.898810139607095
2.994904580949636
3.0909578917471556
3.18541270226381
3.2765736404133015
3.3625922508565034
3.441426190259307
3.510757558095966
3.5678527086650913
3.609344453135014
3.6309205206455153
3.6269177087847213
3.5898632816680016
3.510105458035282
3.3758856499196326
3.1745856424567203
2.8964046406804824
2.541876741149843
2.132833719892451
1.7203227727768293
1.3746218825607863
1.1492630333934477
1.043323763944279
1.0093830475584153
1.0017082873257186
1.0002863737570884
1.0000454356628667
1.0000068762333627
1.0000009968979433
1.0000001389715383
1.0000000186957418
1.000000002435537
1.0000000003082266
1.0000000000380034
1.0000000000045763
1.0000000000005391
1.0000000000000622
1.000000000000007
1.0000000000000007
1.0
1.0
1.0
1.0
1.0
1.0
1.0
1.0
1.0
1.0
1.0
1.0
1.0
1.0
1.0
1.0
1.0
1.0
1.0
1.0
1.0
1.0
1.0
1.0
1.0
1.0
1.0
1.0
3.781660440081713
3.724962817764501
3.6014910685418586
3.462977340599691
3.3165224934353263
3.1671854696625017
3.02056722516779
2.8808363737204408
2.7504971765922672
2.6307523519292415
2.5219606523828193
2.4240188457519745
2.3366240527643307
2.2594292189394256
2.192123316854451
2.134469277183443
2.0863155683842622
2.0475845348972634
2.0182609875013098
1.9983820749915604
1.9880210811679229
1.987268012112315
1.9962030025996842
2.0148648572898864
2.043213556706273
2.0810901818407035
2.1281889688600355
2.1840783948351845
2.2482605116990184
2.3201918654685065
2.399261668348154
2.484771754215514
2.575918885459032
2.6717747567312253
2.771267999756775
2.8731729167297484
2.9761069784621927
3.078535888520599
3.178781146316261
3.2750215464048225
3.3652776266482416
3.447365304696689
3.5188019645975466
3.5766456222407714
3.617247496902003
3.635905461338243
3.6264297180678384
3.580693934142949
3.4883838867218566
3.337425802526545
3.1160057653069115
2.817493499217245
2.4490497309886496
2.0412215552264614
1.6493099397331705
1.3356402179665878
1.13629850624181
1.0411693704130238
1.0090946183693303
1.001610104306185
1.0002575152934767
1.0000389086538088
1.0000056169171825
1.0000007786117289
1.0000001040495632
1.0000000134539946
1.0000000016890107
1.0000000002065024
1.0000000000246556
1.0000000000028813
1.00000000000033
1.000000000000037
1.000000000000004
1.0000000000000004
1.0
1.0
1.0
1.0
1.0
1.0
1.0
1.0
1.0
1.0
1.0
1.0
1.0
1.0
1.0
1.0
1.0
1.0
1.0
1.0
1.0
1.0
1.0
1.0
1.0
1.0
1.0
3.741476022154633
3.6750244977333604
3.5293484875384373
3.366319936977632
3.1967757006598907
3.0265153548050647
2.8612367364410556
2.7050749371884035
2.5604121506469295
2.428277733141387
2.3088329425395937
2.2017655122988926
2.106560695380203
2.022664401463125
1.9495693595600634
1.8868541763461235
1.8341914185404524
1.791340527765132
1.758142570627889
1.734518206252837
1.7204602075915922
1.7160185869840678
1.7212823086064026
1.7363508368065261
1.761296776328684
1.7961242239502981
1.8407230342223828
1.894837560844975
1.9580895294650542
2.0300489888321933
2.110266817469223
2.1982447037035993
2.2933949746126676
2.395004995073597
2.502202628696976
2.6139293435988673
2.728926964715807
2.8457401969978444
2.9627328824301418
3.078111916635218
3.1899502892514793
3.2961984936594844
3.3946701609128302
3.482983698798332
3.5584376374773585
3.6177944108726954
3.6569482010200205
3.67046394907112
3.651013376170859
3.5888341187127546
3.471563889403711
3.2852624099295067
3.018104528235006
2.6683160687157845
2.255670609112917
1.8293108922338956
1.4586096546089427
1.2006732048415674
1.0652881793575892
1.0151321817825152
1.0026500065121826
1.0004060602634741
1.0000585176298338
1.0000080695773712
1.0000010712138012
1.0000001374589877
1.0000000171134578
1.0000000020739912
1.000000000245389
1.0000000000284175
1.0000000000032279
1.00000000000036
1.000000000000039
1.000000000000004
1.0000000000000004
1.0
1.0
1.0
1.0
1.0
1.0
1.0
1.0
1.0
1.0
1.0
1.0
1.0
1.0
1.0
1.0
1.0
1.0
1.0
1.0
1.0
1.0
1.0
1.0
1.0
1.0
3.6791846421912178
3.6021848785550277
3.432496942626644
3.2433117886098017
3.0500082316226043
2.8592911130396113
2.6767652077673274
2.5062513896116525
2.3497691536649055
2.2079758901992856
2.0806895464327972
1.9672908790455552
1.8669910137336803
1.7789891227327788
1.702553712655507
1.6370565458261477
1.5819790024071518
1.5369082895878206
1.5015323515811096
1.4756330430797266
1.4590794297634955
1.451823892240471
1.4538966916936107
1.4653918184552521
1.4864435374040477
1.5171864824174754
1.5577039781263917
1.6079772876672824
1.6678460492262532
1.7370294088338576
1.815210176823876
1.902090567083725
1.9973547270510794
2.1005931675699707
2.211242251312239
2.3285303303577503
2.4514404589182273
2.578696208606696
2.708769334420986
2.839905470955306
2.9701623253197216
3.0974530537481915
3.2195845348508825
3.3342757257727778
3.4391363715780248
3.531581436907312
3.6086521738757433
3.666711863508038
3.7009876537628705
3.704951265032568
3.6695997955860102
3.582873588739225
3.4298564782063297
3.1951714772463284
2.8696108769528177
2.4620358768930783
2.0125324593662057
1.5924930682352432
1.2764442678184715
1.0961922142700236
1.023519050066429
1.0041273513799038
1.0006083137733586
1.0000837125313307
1.000011039817499
1.0000014053639683
1.0000001734372816
1.000000020824946
1.0000000024404896
1.0000000002799012
1.0000000000314908
1.0000000000034825
1.0000000000003786
1.00000000000004
1.000000000000004
1.0000000000000004
1.0
1.0
1.0
1.0
1.0
1.0
1.0
1.0
1.0
1.0
1.0
1.0
1.0
1.0
1.0
1.0
1.0
1.0
1.0
1.0
1.0
1.0
1.0
1.0
1.0
3.601699295390709
3.5132459771921853
3.317569484006187
3.1005635097782527
2.882950918355904
2.672483854374287
2.4744791330089853
2.2921145249293504
2.1267696872656847
1.9785047172608885
1.8466281726210643
1.7301014399005008
1.627790971325139
1.5386076836334173
1.4615722344435091
1.3958372580549494
1.3406879233971756
1.2955347188221462
1.2599039152077849
1.2334278895620412
1.2158379234601233
1.2069603976769558
1.206716278214066
1.2151233081998802
1.2322939438067986
1.258417791552131
1.2937221677391813
1.3384126820453766
1.3926087764171864
1.4562928158053179
1.5293257892713203
1.6115463004577408
1.7028622504990183
1.8032040105209328
1.912397309564179
2.0300722189695457
2.1555944547474706
2.2880201696944766
2.4260771676433968
2.568172594829572
2.7124252395896598
2.856716179194536
2.9987512280683237
3.1361261638233944
3.266378869296194
3.387006868441442
3.4954234850781143
3.588820506768053
3.663900575409464
3.7164405717567908
3.7406565702322183
3.728384262326502
3.6682197522583784
3.5450990529256434
3.3415436318255956
3.042819942013668
2.648253257469781
2.187442841122281
1.7288209073837875
1.359242008344364
1.132569843197455
1.034139020940977
1.0060622603469134
1.0008633215869112
1.0001136142765752
1.000014348000424
1.0000017542115023
1.0000002085496236
1.0000000241915352
1.0000000027460403
1.0000000003057845
1.0000000000334737
1.0000000000036082
1.000000000000383
1.00000000000004
1.000000000000004
1.0000000000000004
1.0
1.0
1.0
1.0
1.0
1.0
1.0
1.0
1.0
1.0
1.0
1.0
1.0
1.0
1.0
1.0
1.0
1.0
1.0
1.0
1.0
1.0
1.0
1.0
3.514238160834335
3.413260470717253
3.18946149268813
2.9431696688371787
2.701193392884261
2.472301665656536
2.2611987088089673
2.0700388047540397
1.8992526931271292
1.748072366494185
1.6151392764748398
1.4988977839215396
1.3978146739254154
1.3104847973718785
1.2356699987662263
1.172303260208606
1.1194777364180677
1.0764311503734392
1.0425301632293913
1.0172576117352286
1.0002042441496952
0.9910651350028616
0.9896402434698308
0.9958383207244359
1.0096835103923891
1.0313231470616133
1.0610223994324266
1.0991317293351976
1.1460152695421844
1.2019669199082572
1.267151645372644
1.3416136582543354
1.425391290565774
1.5186418012402259
1.62158671382949
1.734333895520611
1.8567465582835567
1.9883597727206503
2.1283293229193903
2.275412550201083
2.4279743789521073
2.584015842626516
2.741229289096174
2.8970796856701244
3.048898088910107
3.193968566671627
3.329586200697953
3.4530568318728134
3.56160380703791
3.6521412793540984
3.720868853464231
3.7626435001491316
3.770108547224
3.732655828074309
3.635560719464493
3.4603098422573453
3.1883249780277985
2.8111192114129
2.347839117170486
1.8607814851382916
1.4442476150786172
1.172284769885551
1.046448671454693
1.0083861089910442
1.0011590786176674
1.0001461315514493
1.0000177012946605
1.0000020822455333
1.0000002389087448
1.0000000268219058
1.0000000029542269
1.0000000003199259
1.0000000000341276
1.0000000000035913
1.000000000000373
1.000000000000038
1.0000000000000038
1.0000000000000002
1.0
1.0
1.0
1.0
1.0
1.0
1.0
1.0
1.0
1.0
1.0
1.0
1.0
1.0
1.0
1.0
1.0
1.0
1.0
1.0
1.0
1.0
1.0
3.419617138893863
3.3049543440338214
3.0510071805432815
2.7745981557200565
2.509185593187461
2.2642182320866615
2.043240474535348
1.8469534661057867
1.6745383141782175
1.5242072736949157
1.3938226507646634
1.2812519493592853
1.184534930821172
1.101942827779794
1.0319832684890884
0.9733814375013317
0.9250537890197106
0.8860820309873498
0.8556908875827697
0.8332314182993652
0.8181703246148929
0.8100848219822322
0.8086622636901892
0.8137037059955647
0.8251309608284929
0.8429971106738187
0.8675002646808563
0.8989930168597382
0.9379575456969301
0.9849308451526615
1.0403999544704103
1.1047342947795995
1.178194060854049
1.2610528154909013
1.3537464199703642
1.4568193970424668
1.5706966846361412
1.6954997339008073
1.8309591675006613
1.976365065878397
2.1305396496114968
2.291830628717559
2.4581354975770466
2.6269615085023306
2.795518051155264
2.9608342460667645
3.1198834328711103
3.2696840174510102
3.407344525887468
3.5300158860551667
3.6347074728387128
3.717917401938092
3.775022313113985
3.799384832081514
3.7811993267150603
3.706312483262669
3.5558446783528574
3.30866219474993
2.950161315516396
2.4900164092874983
1.9828960312329282
1.5266567246032259
1.2126572646315488
1.0595274180825471
1.0109239091963262
1.0014704359281514
1.0001779585674297
1.0000207171476423
1.0000023494709962
1.000000260683195
1.000000028379804
1.0000000030384988
1.0000000003205454
1.0000000000333724
1.0000000000034333
1.000000000000349
1.0000000000000349
1.000000000000003
1.0000000000000002
1.0
1.0
1.0
1.0
1.0
1.0
1.0
1.0
1.0
1.0
1.0
1.0
1.0
1.0
1.0
1.0
1.0
1.0
1.0
1.0
1.0
1.0
3.3188891775984883
3.189390379824241
2.9036706513477806
2.597335481522038
2.3107021568011117
2.0531559596803195
1.826333346055887
1.6290644960535785
1.4590308969996963
1.3132973928471725
1.1888946834110767
1.0830986431713472
0.9935262174425452
0.9181401475720601
0.8552156164734732
0.8032960517695557
0.7611503556055825
0.7277362630293494
0.7021712102645417
0.6837107359058961
0.6717337878127709
0.6657340224742809
0.6653160651050803
0.6701959299545495
0.6802054157726568
0.6953009117807037
0.7155771736379604
0.7412861117551335
0.7728589470000785
0.810898790024162
0.8561024064493116
0.9091330026428472
0.9705625015790564
1.0408943616389956
1.1206655493292692
1.2106029223099406
1.311585888916512
1.4243688662928848
1.5493511519102308
1.686491098712675
1.8352527573363127
1.9945627314364271
2.1627868815420683
2.3377426931507364
2.5167591131834515
2.696783819309541
2.874524893504455
3.0466067930588254
3.2097143234841
3.3606863575635546
3.496515044426651
3.6142054065413407
3.7104417774278167
3.7810009737569725
3.819852071914745
3.817925656119877
3.76170727008961
3.632323340621868
3.4069829828272375
3.0664083754800138
2.612191597387004
2.091172386734586
1.602184977303165
1.2508458599278134
1.0722177151904075
1.0134109250131376
1.0017611911015054
1.0002050364591286
1.0000229910576408
1.0000025192980835
1.0000002708895863
1.000000028654575
1.0000000029877112
1.0000000003075589
1.0000000000313003
1.0000000000031528
1.0000000000003144
1.0000000000000306
1.0000000000000027
1.0000000000000002
1.0
1.0
1.0
1.0
1.0
1.0
1.0
1.0
1.0
1.0
1.0
1.0
1.0
1.0
1.0
1.0
1.0
1.0
1.0
1.0
1.0
3.2119662372644955
3.066610482830498
2.7481913216103466
2.413442503775915
2.1092170295528625
1.8436467345904766
1.6156050717501484
1.4217258485274948
1.2580167341017732
1.1203457554563894
1.004923556289963
0.9084688516316897
0.8282158792035792
0.7618586977707822
0.7074792191262962
0.6634791251118464
0.6285223424431139
0.6014887706000542
0.5814379225177745
0.5675809597785294
0.5592599533624438
0.5559333722809359
0.557166793068396
0.5626281265672162
0.57208744281089
0.5854222624965144
0.6026292926599992
0.6238428860952505
0.6493595673879377
0.6796675508859454
0.7154568390389207
0.7575373797372009
0.8067042602231824
0.8637223986952279
0.9293488455879539
1.0043849772040472
1.0898570487642694
1.1869849606568095
1.296840336309391
1.4201033062532917
1.5569944220843128
1.7072030409485546
1.869808853259715
2.043233124678314
2.2252409939236575
2.4130011258926007
2.6032019198257697
2.7922171608141753
2.976298281124338
3.1517593573287446
3.3151163586884844
3.4631352475340957
3.5927355629777438
3.700692708835542
3.783074804131485
3.834340682701224
3.8460540498642373
3.805307778127739
3.693399777695521
3.4864501905009755
3.1616351248494263
2.7139184080609215
2.1829775573448114
1.6673364442691183
1.2841848118339048
1.0833053195155427
1.0155394326327523
1.0019905051800968
1.0002233825753597
1.000024185744571
1.0000025668380366
1.000000268069349
1.0000000276082166
1.0000000028085507
1.0000000002825926
1.0000000000281557
1.00000000000278
1.0000000000002716
1.000000000000026
1.0000000000000024
1.0000000000000002
1.0
1.0
1.0
1.0
1.0
1.0
1.0
1.0
1.0
1.0
1.0
1.0
1.0
1.0
1.0
1.0
1.0
1.0
1.0
1.0
3.0981050091282993
2.9361498679105544
2.5851268004458445
2.2250514203211837
1.9082294676095042
1.6399631052155847
1.4155823336056699
1.229334878575902
1.0754937837643193
0.9487792301111504
0.8446611867644356
0.7593789988962378
0.6898513832285091
0.6335613442716121
0.58845010429946
0.552829924356111
0.5253151139825736
0.5047670116412496
0.4902490145367635
0.4809895784672312
0.4763525980910962
0.47581484045470446
0.4789496669488975
0.48541628299321676
0.49495460749496795
0.50738685312436
0.5226269950326111
0.5406983213905413
0.561758020301693
0.5861273653271276
0.6143268959936741
0.6470944415162047
0.6852910101665883
0.7297959533189924
0.7815498555199847
0.8415391910347348
0.9108161927846917
0.9907143106510172
1.0827737462694111
1.1883531232259894
1.3084245229750417
1.4435069191460783
1.5935553209160065
1.7578475741309285
1.934905719179322
2.122477576365757
2.317591989426486
2.516688045619055
2.715803954439333
2.9108029597918073
3.0976026972945108
3.2723616779134455
3.431572402160273
3.572006872011734
3.6904574918542496
3.783191727670893
3.8450433610588677
3.8680906125509935
3.8399460047203986
3.742108238167864
3.5499251252512005
3.2378435473484157
2.7955472225286826
2.2567507739194825
1.7194753586823186
1.310426726914411
1.091693664532694
1.0170209428825343
1.0021223264339694
1.0002300648616567
1.0000241146690934
1.0000024849765663
1.0000002526345488
1.0000000253840886
1.0000000025240878
1.0000000002486538
1.00000000002429
1.0000000000023537
1.0000000000002263
1.0000000000000218
1.000000000000002
1.0
1.0
1.0
1.0
1.0
1.0
1.0
1.0
1.0
1.0
1.0
1.0
1.0
1.0
1.0
1.0
1.0
1.0
1.0
1.0
2.9763601643179705
2.7975286000977198
2.4153561814771503
2.0347338693661876
1.7113859475427198
1.4460418109934463
1.23002576161093
1.0551514511810216
0.9140372502130847
0.8003933656555265
0.7090798518446765
0.6359628201976527
0.5777287694126075
0.531718587196767
0.4957965560838423
0.46825073427458086
0.4477149738245886
0.43310354725122213
0.42355358885069794
0.41837496975345556
0.4170091780212885
0.41899793313112255
0.42396051022688075
0.4315782219355339
0.4415856437572516
0.4537696909213852
0.4679778546338141
0.4841355724454914
0.5022709743096594
0.5225447351796277
0.5452839156545237
0.571020433472526
0.6004983218129345
0.6345694952985876
0.6741799965493298
0.7204217901597814
0.7744509599067477
0.8375540902259162
0.9113684572733362
0.9977045871137726
1.0981717247148557
1.214052361147749
1.346197189102728
1.4948617127171373
1.6595555717657648
1.8389368833779225
2.0307717877454343
2.231978515907883
2.438762567971783
2.6468306842695117
2.8516543696935663
3.0487419975553567
3.233872192404115
3.403233269520777
3.5534147938946328
3.6811698097784094
3.7828772303177463
3.8536462038711283
3.885955463912445
3.8678187241513795
3.780869785004393
3.5998146840327436
3.2969318545333324
2.8578036357332777
2.311685694067731
1.7567732118444788
1.327888958332754
1.0965514265027116
1.0176469506616717
1.00213475984338
1.0002239879414638
1.0000227908024788
1.000002286149845
1.0000002267684547
1.0000000222744956
1.0000000021688837
1.000000000209529
1.0000000000200975
1.000000000001915
1.000000000000181
1.0000000000000164
1.0000000000000013
1.0
1.0
1.0
1.0
1.0
1.0
1.0
1.0
1.0
1.0
1.0
1.0
1.0
1.0
1.0
1.0
1.0
1.0
1.0
2.845997467035085
2.6506719698735854
2.2404129559713764
1.8455563211502748
1.5223244533637974
1.2652945146667172
1.061768952082462
0.9012167379554293
0.7748145221673579
0.6754664535439299
0.5975821605986089
0.5367719850101367
0.48958031865414403
0.4532844718672451
0.4257499555554133
0.40532236245690473
0.3907376322475642
0.3810401412700035
0.37550689990471536
0.373581626216302
0.3748226571328084
0.3788652767130173
0.38539574323785886
0.3941337428402935
0.4048220420203435
0.4172245990335456
0.431134834140941
0.4463939656710022
0.46291682447568866
0.4807216642889406
0.49996205629324264
0.5209610907487732
0.5442480332141997
0.5705224590891703
0.6006138230866496
0.6355344847858138
0.6764649069235293
0.7246824804745019
0.7817087864645147
0.849441160300201
0.9298814729474605
1.0248799174480765
1.1360449552142393
1.26457134191688
1.4110373300777537
1.575213697954083
1.7559213077688876
1.9509694032895843
2.1571900152280783
2.370576020455639
2.5865156727533134
2.800092237632539
3.006402697742587
3.200839238442291
3.379277608376328
3.5380985106578944
3.673963442336486
3.783305441595615
3.861430374288414
3.9011006900250766
3.8905916641364557
3.8115485342200284
3.638029492099069
3.340509197607305
2.9014896123153435
2.347451317867331
1.7781067671557196
1.3355247846195535
1.0974114912308541
1.0173308075823182
1.002026048437955
1.0002061943183953
1.000020422745222
1.0000019992028775
1.0000001939140652
1.000000018657278
1.0000000017820798
1.0000000001690987
1.0000000000159492
1.0000000000014955
1.0000000000001388
1.0000000000000127
1.0000000000000009
1.0
1.0
1.0
1.0
1.0
1.0
1.0
1.0
1.0
1.0
1.0
1.0
1.0
1.0
1.0
1.0
1.0
1.0
2.7067786237159357
2.4961687630057616
2.06260621733673
1.6609267339351885
1.3444069106437062
1.1004195679596807
0.9126147526407069
0.7683627584418318
0.6577054887153172
0.5729766133963282
0.5082999590802536
0.45914823774874647
0.4220214597394722
0.3942284355565343
0.3737337328789725
0.35903589439984884
0.34905655973668953
0.3430349335265007
0.3404320471886835
0.3408520239669673
0.3439842129981133
0.3495644072039027
0.3573495879305194
0.3671009602733219
0.3785734977376029
0.39151392539971114
0.4056697543971964
0.4208095371453016
0.43675089993986504
0.45339132176261376
0.47073856416195425
0.488940570766249
0.5083180036597001
0.5293667202815319
0.5527309250084457
0.5792417895441249
0.6099423141391889
0.6460408011582298
0.6889228740621731
0.7403334054570587
0.8023426594363778
0.8770908263994701
0.9666775036768191
1.073028256840676
1.197679816961696
1.3415380393734668
1.5046481820703614
1.6860144150934244
1.8835067932102527
2.0938858750323655
2.3129477488653327
2.535777533081987
2.757083825408566
2.971561870729216
3.174224858012353
3.3606364673581326
3.526948471927125
3.6697076866846805
3.7853669015627496
3.869354787938709
3.9146024040266303
3.9094925329361447
3.8355141200403517
3.665987724610236
3.369800941005025
2.9272829281575814
2.3639808990508917