# vtk DataFile Version 3.0 
shock_diffraction_time_series_277_.vtk
ASCII
DATASET UNSTRUCTURED_GRID
POINTS         10201 double
0.0 0.0 0.0
0.01 0.0 0.0
0.02 0.0 0.0
0.03 0.0 0.0
0.04 0.0 0.0
0.05 0.0 0.0
0.06 0.0 0.0
0.07 0.0 0.0
0.08 0.0 0.0
0.09 0.0 0.0
0.1 0.0 0.0
0.11 0.0 0.0
0.12 0.0 0.0
0.13 0.0 0.0
0.14 0.0 0.0
0.15 0.0 0.0
0.16 0.0 0.0
0.17 0.0 0.0
0.18 0.0 0.0
0.19 0.0 0.0
0.2 0.0 0.0
0.21 0.0 0.0
0.22 0.0 0.0
0.23 0.0 0.0
0.24 0.0 0.0
0.25 0.0 0.0
0.26 0.0 0.0
0.27 0.0 0.0
0.28 0.0 0.0
0.29 0.0 0.0
0.3 0.0 0.0
0.31 0.0 0.0
0.32 0.0 0.0
0.33 0.0 0.0
0.34 0.0 0.0
0.35000000000000003 0.0 0.0
0.36 0.0 0.0
0.37 0.0 0.0
0.38 0.0 0.0
0.39 0.0 0.0
0.4 0.0 0.0
0.41000000000000003 0.0 0.0
0.42 0.0 0.0
0.43 0.0 0.0
0.44 0.0 0.0
0.45 0.0 0.0
0.46 0.0 0.0
0.47000000000000003 0.0 0.0
0.48 0.0 0.0
0.49 0.0 0.0
0.5 0.0 0.0
0.51 0.0 0.0
0.52 0.0 0.0
0.53 0.0 0.0
0.54 0.0 0.0
0.55 0.0 0.0
0.56 0.0 0.0
0.5700000000000001 0.0 0.0
0.58 0.0 0.0
0.59 0.0 0.0
0.6 0.0 0.0
0.61 0.0 0.0
0.62 0.0 0.0
0.63 0.0 0.0
0.64 0.0 0.0
0.65 0.0 0.0
0.66 0.0 0.0
0.67 0.0 0.0
0.68 0.0 0.0
0.6900000000000001 0.0 0.0
0.7000000000000001 0.0 0.0
0.71 0.0 0.0
0.72 0.0 0.0
0.73 0.0 0.0
0.74 0.0 0.0
0.75 0.0 0.0
0.76 0.0 0.0
0.77 0.0 0.0
0.78 0.0 0.0
0.79 0.0 0.0
0.8 0.0 0.0
0.81 0.0 0.0
0.8200000000000001 0.0 0.0
0.8300000000000001 0.0 0.0
0.84 0.0 0.0
0.85 0.0 0.0
0.86 0.0 0.0
0.87 0.0 0.0
0.88 0.0 0.0
0.89 0.0 0.0
0.9 0.0 0.0
0.91 0.0 0.0
0.92 0.0 0.0
0.93 0.0 0.0
0.9400000000000001 0.0 0.0
0.9500000000000001 0.0 0.0
0.96 0.0 0.0
0.97 0.0 0.0
0.98 0.0 0.0
0.99 0.0 0.0
1.0 0.0 0.0
0.0 0.01 0.0
0.01 0.01 0.0
0.02 0.01 0.0
0.03 0.01 0.0
0.04 0.01 0.0
0.05 0.01 0.0
0.06 0.01 0.0
0.07 0.01 0.0
0.08 0.01 0.0
0.09 0.01 0.0
0.1 0.01 0.0
0.11 0.01 0.0
0.12 0.01 0.0
0.13 0.01 0.0
0.14 0.01 0.0
0.15 0.01 0.0
0.16 0.01 0.0
0.17 0.01 0.0
0.18 0.01 0.0
0.19 0.01 0.0
0.2 0.01 0.0
0.21 0.01 0.0
0.22 0.01 0.0
0.23 0.01 0.0
0.24 0.01 0.0
0.25 0.01 0.0
0.26 0.01 0.0
0.27 0.01 0.0
0.28 0.01 0.0
0.29 0.01 0.0
0.3 0.01 0.0
0.31 0.01 0.0
0.32 0.01 0.0
0.33 0.01 0.0
0.34 0.01 0.0
0.35000000000000003 0.01 0.0
0.36 0.01 0.0
0.37 0.01 0.0
0.38 0.01 0.0
0.39 0.01 0.0
0.4 0.01 0.0
0.41000000000000003 0.01 0.0
0.42 0.01 0.0
0.43 0.01 0.0
0.44 0.01 0.0
0.45 0.01 0.0
0.46 0.01 0.0
0.47000000000000003 0.01 0.0
0.48 0.01 0.0
0.49 0.01 0.0
0.5 0.01 0.0
0.51 0.01 0.0
0.52 0.01 0.0
0.53 0.01 0.0
0.54 0.01 0.0
0.55 0.01 0.0
0.56 0.01 0.0
0.5700000000000001 0.01 0.0
0.58 0.01 0.0
0.59 0.01 0.0
0.6 0.01 0.0
0.61 0.01 0.0
0.62 0.01 0.0
0.63 0.01 0.0
0.64 0.01 0.0
0.65 0.01 0.0
0.66 0.01 0.0
0.67 0.01 0.0
0.68 0.01 0.0
0.6900000000000001 0.01 0.0
0.7000000000000001 0.01 0.0
0.71 0.01 0.0
0.72 0.01 0.0
0.73 0.01 0.0
0.74 0.01 0.0
0.75 0.01 0.0
0.76 0.01 0.0
0.77 0.01 0.0
0.78 0.01 0.0
0.79 0.01 0.0
0.8 0.01 0.0
0.81 0.01 0.0
0.8200000000000001 0.01 0.0
0.8300000000000001 0.01 0.0
0.84 0.01 0.0
0.85 0.01 0.0
0.86 0.01 0.0
0.87 0.01 0.0
0.88 0.01 0.0
0.89 0.01 0.0
0.9 0.01 0.0
0.91 0.01 0.0
0.92 0.01 0.0
0.93 0.01 0.0
0.9400000000000001 0.01 0.0
0.9500000000000001 0.01 0.0
0.96 0.01 0.0
0.97 0.01 0.0
0.98 0.01 0.0
0.99 0.01 0.0
1.0 0.01 0.0
0.0 0.02 0.0
0.01 0.02 0.0
0.02 0.02 0.0
0.03 0.02 0.0
0.04 0.02 0.0
0.05 0.02 0.0
0.06 0.02 0.0
0.07 0.02 0.0
0.08 0.02 0.0
0.09 0.02 0.0
0.1 0.02 0.0
0.11 0.02 0.0
0.12 0.02 0.0
0.13 0.02 0.0
0.14 0.02 0.0
0.15 0.02 0.0
0.16 0.02 0.0
0.17 0.02 0.0
0.18 0.02 0.0
0.19 0.02 0.0
0.2 0.02 0.0
0.21 0.02 0.0
0.22 0.02 0.0
0.23 0.02 0.0
0.24 0.02 0.0
0.25 0.02 0.0
0.26 0.02 0.0
0.27 0.02 0.0
0.28 0.02 0.0
0.29 0.02 0.0
0.3 0.02 0.0
0.31 0.02 0.0
0.32 0.02 0.0
0.33 0.02 0.0
0.34 0.02 0.0
0.35000000000000003 0.02 0.0
0.36 0.02 0.0
0.37 0.02 0.0
0.38 0.02 0.0
0.39 0.02 0.0
0.4 0.02 0.0
0.41000000000000003 0.02 0.0
0.42 0.02 0.0
0.43 0.02 0.0
0.44 0.02 0.0
0.45 0.02 0.0
0.46 0.02 0.0
0.47000000000000003 0.02 0.0
0.48 0.02 0.0
0.49 0.02 0.0
0.5 0.02 0.0
0.51 0.02 0.0
0.52 0.02 0.0
0.53 0.02 0.0
0.54 0.02 0.0
0.55 0.02 0.0
0.56 0.02 0.0
0.5700000000000001 0.02 0.0
0.58 0.02 0.0
0.59 0.02 0.0
0.6 0.02 0.0
0.61 0.02 0.0
0.62 0.02 0.0
0.63 0.02 0.0
0.64 0.02 0.0
0.65 0.02 0.0
0.66 0.02 0.0
0.67 0.02 0.0
0.68 0.02 0.0
0.6900000000000001 0.02 0.0
0.7000000000000001 0.02 0.0
0.71 0.02 0.0
0.72 0.02 0.0
0.73 0.02 0.0
0.74 0.02 0.0
0.75 0.02 0.0
0.76 0.02 0.0
0.77 0.02 0.0
0.78 0.02 0.0
0.79 0.02 0.0
0.8 0.02 0.0
0.81 0.02 0.0
0.8200000000000001 0.02 0.0
0.8300000000000001 0.02 0.0
0.84 0.02 0.0
0.85 0.02 0.0
0.86 0.02 0.0
0.87 0.02 0.0
0.88 0.02 0.0
0.89 0.02 0.0
0.9 0.02 0.0
0.91 0.02 0.0
0.92 0.02 0.0
0.93 0.02 0.0
0.9400000000000001 0.02 0.0
0.9500000000000001 0.02 0.0
0.96 0.02 0.0
0.97 0.02 0.0
0.98 0.02 0.0
0.99 0.02 0.0
1.0 0.02 0.0
0.0 0.03 0.0
0.01 0.03 0.0
0.02 0.03 0.0
0.03 0.03 0.0
0.04 0.03 0.0
0.05 0.03 0.0
0.06 0.03 0.0
0.07 0.03 0.0
0.08 0.03 0.0
0.09 0.03 0.0
0.1 0.03 0.0
0.11 0.03 0.0
0.12 0.03 0.0
0.13 0.03 0.0
0.14 0.03 0.0
0.15 0.03 0.0
0.16 0.03 0.0
0.17 0.03 0.0
0.18 0.03 0.0
0.19 0.03 0.0
0.2 0.03 0.0
0.21 0.03 0.0
0.22 0.03 0.0
0.23 0.03 0.0
0.24 0.03 0.0
0.25 0.03 0.0
0.26 0.03 0.0
0.27 0.03 0.0
0.28 0.03 0.0
0.29 0.03 0.0
0.3 0.03 0.0
0.31 0.03 0.0
0.32 0.03 0.0
0.33 0.03 0.0
0.34 0.03 0.0
0.35000000000000003 0.03 0.0
0.36 0.03 0.0
0.37 0.03 0.0
0.38 0.03 0.0
0.39 0.03 0.0
0.4 0.03 0.0
0.41000000000000003 0.03 0.0
0.42 0.03 0.0
0.43 0.03 0.0
0.44 0.03 0.0
0.45 0.03 0.0
0.46 0.03 0.0
0.47000000000000003 0.03 0.0
0.48 0.03 0.0
0.49 0.03 0.0
0.5 0.03 0.0
0.51 0.03 0.0
0.52 0.03 0.0
0.53 0.03 0.0
0.54 0.03 0.0
0.55 0.03 0.0
0.56 0.03 0.0
0.5700000000000001 0.03 0.0
0.58 0.03 0.0
0.59 0.03 0.0
0.6 0.03 0.0
0.61 0.03 0.0
0.62 0.03 0.0
0.63 0.03 0.0
0.64 0.03 0.0
0.65 0.03 0.0
0.66 0.03 0.0
0.67 0.03 0.0
0.68 0.03 0.0
0.6900000000000001 0.03 0.0
0.7000000000000001 0.03 0.0
0.71 0.03 0.0
0.72 0.03 0.0
0.73 0.03 0.0
0.74 0.03 0.0
0.75 0.03 0.0
0.76 0.03 0.0
0.77 0.03 0.0
0.78 0.03 0.0
0.79 0.03 0.0
0.8 0.03 0.0
0.81 0.03 0.0
0.8200000000000001 0.03 0.0
0.8300000000000001 0.03 0.0
0.84 0.03 0.0
0.85 0.03 0.0
0.86 0.03 0.0
0.87 0.03 0.0
0.88 0.03 0.0
0.89 0.03 0.0
0.9 0.03 0.0
0.91 0.03 0.0
0.92 0.03 0.0
0.93 0.03 0.0
0.9400000000000001 0.03 0.0
0.9500000000000001 0.03 0.0
0.96 0.03 0.0
0.97 0.03 0.0
0.98 0.03 0.0
0.99 0.03 0.0
1.0 0.03 0.0
0.0 0.04 0.0
0.01 0.04 0.0
0.02 0.04 0.0
0.03 0.04 0.0
0.04 0.04 0.0
0.05 0.04 0.0
0.06 0.04 0.0
0.07 0.04 0.0
0.08 0.04 0.0
0.09 0.04 0.0
0.1 0.04 0.0
0.11 0.04 0.0
0.12 0.04 0.0
0.13 0.04 0.0
0.14 0.04 0.0
0.15 0.04 0.0
0.16 0.04 0.0
0.17 0.04 0.0
0.18 0.04 0.0
0.19 0.04 0.0
0.2 0.04 0.0
0.21 0.04 0.0
0.22 0.04 0.0
0.23 0.04 0.0
0.24 0.04 0.0
0.25 0.04 0.0
0.26 0.04 0.0
0.27 0.04 0.0
0.28 0.04 0.0
0.29 0.04 0.0
0.3 0.04 0.0
0.31 0.04 0.0
0.32 0.04 0.0
0.33 0.04 0.0
0.34 0.04 0.0
0.35000000000000003 0.04 0.0
0.36 0.04 0.0
0.37 0.04 0.0
0.38 0.04 0.0
0.39 0.04 0.0
0.4 0.04 0.0
0.41000000000000003 0.04 0.0
0.42 0.04 0.0
0.43 0.04 0.0
0.44 0.04 0.0
0.45 0.04 0.0
0.46 0.04 0.0
0.47000000000000003 0.04 0.0
0.48 0.04 0.0
0.49 0.04 0.0
0.5 0.04 0.0
0.51 0.04 0.0
0.52 0.04 0.0
0.53 0.04 0.0
0.54 0.04 0.0
0.55 0.04 0.0
0.56 0.04 0.0
0.5700000000000001 0.04 0.0
0.58 0.04 0.0
0.59 0.04 0.0
0.6 0.04 0.0
0.61 0.04 0.0
0.62 0.04 0.0
0.63 0.04 0.0
0.64 0.04 0.0
0.65 0.04 0.0
0.66 0.04 0.0
0.67 0.04 0.0
0.68 0.04 0.0
0.6900000000000001 0.04 0.0
0.7000000000000001 0.04 0.0
0.71 0.04 0.0
0.72 0.04 0.0
0.73 0.04 0.0
0.74 0.04 0.0
0.75 0.04 0.0
0.76 0.04 0.0
0.77 0.04 0.0
0.78 0.04 0.0
0.79 0.04 0.0
0.8 0.04 0.0
0.81 0.04 0.0
0.8200000000000001 0.04 0.0
0.8300000000000001 0.04 0.0
0.84 0.04 0.0
0.85 0.04 0.0
0.86 0.04 0.0
0.87 0.04 0.0
0.88 0.04 0.0
0.89 0.04 0.0
0.9 0.04 0.0
0.91 0.04 0.0
0.92 0.04 0.0
0.93 0.04 0.0
0.9400000000000001 0.04 0.0
0.9500000000000001 0.04 0.0
0.96 0.04 0.0
0.97 0.04 0.0
0.98 0.04 0.0
0.99 0.04 0.0
1.0 0.04 0.0
0.0 0.05 0.0
0.01 0.05 0.0
0.02 0.05 0.0
0.03 0.05 0.0
0.04 0.05 0.0
0.05 0.05 0.0
0.06 0.05 0.0
0.07 0.05 0.0
0.08 0.05 0.0
0.09 0.05 0.0
0.1 0.05 0.0
0.11 0.05 0.0
0.12 0.05 0.0
0.13 0.05 0.0
0.14 0.05 0.0
0.15 0.05 0.0
0.16 0.05 0.0
0.17 0.05 0.0
0.18 0.05 0.0
0.19 0.05 0.0
0.2 0.05 0.0
0.21 0.05 0.0
0.22 0.05 0.0
0.23 0.05 0.0
0.24 0.05 0.0
0.25 0.05 0.0
0.26 0.05 0.0
0.27 0.05 0.0
0.28 0.05 0.0
0.29 0.05 0.0
0.3 0.05 0.0
0.31 0.05 0.0
0.32 0.05 0.0
0.33 0.05 0.0
0.34 0.05 0.0
0.35000000000000003 0.05 0.0
0.36 0.05 0.0
0.37 0.05 0.0
0.38 0.05 0.0
0.39 0.05 0.0
0.4 0.05 0.0
0.41000000000000003 0.05 0.0
0.42 0.05 0.0
0.43 0.05 0.0
0.44 0.05 0.0
0.45 0.05 0.0
0.46 0.05 0.0
0.47000000000000003 0.05 0.0
0.48 0.05 0.0
0.49 0.05 0.0
0.5 0.05 0.0
0.51 0.05 0.0
0.52 0.05 0.0
0.53 0.05 0.0
0.54 0.05 0.0
0.55 0.05 0.0
0.56 0.05 0.0
0.5700000000000001 0.05 0.0
0.58 0.05 0.0
0.59 0.05 0.0
0.6 0.05 0.0
0.61 0.05 0.0
0.62 0.05 0.0
0.63 0.05 0.0
0.64 0.05 0.0
0.65 0.05 0.0
0.66 0.05 0.0
0.67 0.05 0.0
0.68 0.05 0.0
0.6900000000000001 0.05 0.0
0.7000000000000001 0.05 0.0
0.71 0.05 0.0
0.72 0.05 0.0
0.73 0.05 0.0
0.74 0.05 0.0
0.75 0.05 0.0
0.76 0.05 0.0
0.77 0.05 0.0
0.78 0.05 0.0
0.79 0.05 0.0
0.8 0.05 0.0
0.81 0.05 0.0
0.8200000000000001 0.05 0.0
0.8300000000000001 0.05 0.0
0.84 0.05 0.0
0.85 0.05 0.0
0.86 0.05 0.0
0.87 0.05 0.0
0.88 0.05 0.0
0.89 0.05 0.0
0.9 0.05 0.0
0.91 0.05 0.0
0.92 0.05 0.0
0.93 0.05 0.0
0.9400000000000001 0.05 0.0
0.9500000000000001 0.05 0.0
0.96 0.05 0.0
0.97 0.05 0.0
0.98 0.05 0.0
0.99 0.05 0.0
1.0 0.05 0.0
0.0 0.06 0.0
0.01 0.06 0.0
0.02 0.06 0.0
0.03 0.06 0.0
0.04 0.06 0.0
0.05 0.06 0.0
0.06 0.06 0.0
0.07 0.06 0.0
0.08 0.06 0.0
0.09 0.06 0.0
0.1 0.06 0.0
0.11 0.06 0.0
0.12 0.06 0.0
0.13 0.06 0.0
0.14 0.06 0.0
0.15 0.06 0.0
0.16 0.06 0.0
0.17 0.06 0.0
0.18 0.06 0.0
0.19 0.06 0.0
0.2 0.06 0.0
0.21 0.06 0.0
0.22 0.06 0.0
0.23 0.06 0.0
0.24 0.06 0.0
0.25 0.06 0.0
0.26 0.06 0.0
0.27 0.06 0.0
0.28 0.06 0.0
0.29 0.06 0.0
0.3 0.06 0.0
0.31 0.06 0.0
0.32 0.06 0.0
0.33 0.06 0.0
0.34 0.06 0.0
0.35000000000000003 0.06 0.0
0.36 0.06 0.0
0.37 0.06 0.0
0.38 0.06 0.0
0.39 0.06 0.0
0.4 0.06 0.0
0.41000000000000003 0.06 0.0
0.42 0.06 0.0
0.43 0.06 0.0
0.44 0.06 0.0
0.45 0.06 0.0
0.46 0.06 0.0
[...]
POINT_DATA  10201
FIELD  FlowField  4
Density    1 10201  double
1.0000000669537212
1.0000000765392796
1.0000001052720047
1.0000001554815139
1.0000002330522544
1.0000003451799535
1.0000004979682844
1.0000006933531567
1.0000009256675102
1.0000011789421093
1.0000014265655688
1.000001634653898
1.0000017691487113
1.0000018048054018
1.0000017328414428
1.0000015640465938
1.0000013259193574
1.000001054981258
1.0000007873310568
1.000000550816624
1.0000003610484223
1.000000221625121
1.0000001273400998
1.000000068455922
1.0000000344170439
1.000000016176453
1.0000000071054185
1.0000000029158786
1.000000001117734
1.0000000004001888
1.0000000001338396
1.000000000041823
1.0000000000122176
1.000000000003339
1.0000000000008549
1.0000000000002047
1.0000000000000457
1.0000000000000093
1.0000000000000013
1.0
1.0
1.0
1.0
1.0
1.0
1.0
1.0
1.0
1.0
1.0
1.0
1.0
1.0
1.0
1.0
1.0
1.0
1.0
1.0
1.0
1.0
1.0
1.0
1.0
1.0
1.0
1.0
1.0
1.0
1.0
1.0
1.0
1.0
1.0
1.0
1.0
1.0
1.0
1.0
1.0
1.0
1.0
1.0
1.0
1.0
1.0
1.0
1.0
1.0
1.0
1.0
1.0
1.0
1.0
1.0
1.0
1.0
1.0
1.0
1.0
1.0
1.0000002332854447
1.0000002672611423
1.0000003690987334
1.0000005478572958
1.0000008268070502
1.0000012355843093
1.0000018018444066
1.0000025400083734
1.0000034375903577
1.0000044427995733
1.0000054597413124
1.0000063575232583
1.0000069952068373
1.0000072572375327
1.0000070873871043
1.0000065074260782
1.0000056121657253
1.0000045427240771
1.0000034488736724
1.000002454436116
1.000001636432577
1.0000010216198145
1.000000596909672
1.0000003262476507
1.00000016672665
1.0000000796327277
1.000000035533077
1.0000000148073707
1.000000005761172
1.0000000020924893
1.000000000709465
1.0000000002245908
1.000000000066409
1.0000000000183547
1.0000000000047469
1.0000000000011497
1.0000000000002611
1.0000000000000555
1.0000000000000107
1.0000000000000018
1.0000000000000002
1.0
1.0
1.0
1.0
1.0
1.0
1.0
1.0
1.0
1.0
1.0
1.0
1.0
1.0
1.0
1.0
1.0
1.0
1.0
1.0
1.0
1.0
1.0
1.0
1.0
1.0
1.0
1.0
1.0
1.0
1.0
1.0
1.0
1.0
1.0
1.0
1.0
1.0
1.0
1.0
1.0
1.0
1.0
1.0
1.0
1.0
1.0
1.0
1.0
1.0
1.0
1.0
1.0
1.0
1.0
1.0
1.0
1.0
1.0
1.0
1.0000013961703598
1.000001602722033
1.0000022212464441
1.000003311551098
1.0000050313358728
1.000007589439957
1.0000111975143464
1.0000160008317907
1.0000219861465995
1.000028886473119
1.000036123700208
1.0000428377325732
1.0000480290238216
1.0000507936882206
1.0000505788306921
1.0000473586117835
1.000041654140911
1.0000343866809254
1.0000266248356882
1.000019322772187
1.000013136507535
1.0000083613368802
1.0000049799467186
1.0000027739711495
1.000001444404525
1.0000007027079258
1.0000003192725446
1.0000001354160042
1.0000000535982991
1.0000000197923895
1.0000000068181172
1.0000000021911948
1.0000000006571712
1.000000000184039
1.0000000000481697
1.0000000000117981
1.000000000002709
1.0000000000005842
1.0000000000001186
1.0000000000000224
1.0000000000000036
1.0000000000000004
1.0
1.0
1.0
1.0
1.0
1.0
1.0
1.0
1.0
1.0
1.0
1.0
1.0
1.0
1.0
1.0
1.0
1.0
1.0
1.0
1.0
1.0
1.0
1.0
1.0
1.0
1.0
1.0
1.0
1.0
1.0
1.0
1.0
1.0
1.0
1.0
1.0
1.0
1.0
1.0
1.0
1.0
1.0
1.0
1.0
1.0
1.0
1.0
1.0
1.0
1.0
1.0
1.0
1.0
1.0
1.0
1.0
1.0
1.0
1.0000083690436399
1.0000096225581594
1.0000133678091991
1.0000199891491715
1.0000305365337292
1.0000464466879126
1.0000692719935376
1.0001002678190458
1.0001397912920171
1.0001866088167595
1.0002373636768018
1.0002865551309106
1.0003272911466332
1.000352782128517
1.0003581707653217
1.000342022916696
1.0003068471049494
1.0002584061878284
1.000204107941929
1.0001511073721365
1.0001047844184576
1.0000680188152329
1.0000413079089392
1.000023456821963
1.0000124481080508
1.0000061703287635
1.000002855387714
1.0000012330177075
1.0000004966393132
1.0000001865251251
1.0000000653082695
1.0000000213165394
1.0000000064872479
1.0000000018416024
1.0000000004880478
1.0000000001208826
1.0000000000280278
1.0000000000060956
1.0000000000012463
1.0000000000002403
1.0000000000000433
1.000000000000007
1.000000000000001
1.0
1.0
1.0
1.0
1.0
1.0
1.0
1.0
1.0
1.0
1.0
1.0
1.0
1.0
1.0
1.0
1.0
1.0
1.0
1.0
1.0
1.0
1.0
1.0
1.0
1.0
1.0
1.0
1.0
1.0
1.0
1.0
1.0
1.0
1.0
1.0
1.0
1.0
1.0
1.0
1.0
1.0
1.0
1.0
1.0
1.0
1.0
1.0
1.0
1.0
1.0
1.0
1.0
1.0
1.0
1.0
1.0
1.0
1.0000502415800065
1.0000578387392105
1.00008045039104
1.0001204801765915
1.0001848006547214
1.0002830663322544
1.000426230650071
1.0006241422791398
1.0008817272307353
1.0011941971700922
1.0015427798610284
1.001893364354904
1.0022001762346253
1.002414808671312
1.002498472268209
1.0024332647913887
1.0022279631123572
1.0019158995382502
1.001545787965667
1.0011690316052209
1.0008279847890107
1.0005487867138134
1.0003401575945192
1.0001970596221308
1.0001066408122736
1.0000538810159083
1.000025404891385
1.0000111726484187
1.0000045809321902
1.0000017504055096
1.0000006231352385
1.0000002066433693
1.00000006383815
1.0000000183779303
1.0000000049334234
1.0000000012361752
1.0000000002895504
1.0000000000635207
1.0000000000130824
1.0000000000025364
1.000000000000464
1.00000000000008
1.0000000000000129
1.0000000000000018
1.0000000000000002
1.0
1.0
1.0
1.0
1.0
1.0
1.0
1.0
1.0
1.0
1.0
1.0
1.0
1.0
1.0
1.0
1.0
1.0
1.0
1.0
1.0
1.0
1.0
1.0
1.0
1.0
1.0
1.0
1.0
1.0
1.0
1.0
1.0
1.0
1.0
1.0
1.0
1.0
1.0
1.0
1.0
1.0
1.0
1.0
1.0
1.0
1.0
1.0
1.0
1.0
1.0
1.0
1.0
1.0
1.0
1.0
1.0003019667582156
1.0003479130957675
1.000483834488409
1.0007241447865958
1.0011125786027133
1.0017113376147142
1.0025924769212053
1.0038232787733312
1.0054419879735415
1.007427011592009
1.0096697328532966
1.0119663008001916
1.0140402176627363
1.0155945153209172
1.0163792873756448
1.0162534906861453
1.0152214192316167
1.0134333002499547
1.011150809224649
1.008687256517411
1.0063382574103419
1.0043227285759655
1.0027520515594464
1.0016342202105588
1.0009047864705867
1.0004669639787402
1.0002246263297845
1.000100691216534
1.0000420490752455
1.0000163537233424
1.0000059216218768
1.0000019958892823
1.0000006261560135
1.0000001828774852
1.0000000497490136
1.0000000126163615
1.000000002986612
1.000000000661149
1.0000000001371823
1.000000000026754
1.00000000000492
1.0000000000008558
1.0000000000001408
1.0000000000000218
1.000000000000003
1.0000000000000004
1.0
1.0
1.0
1.0
1.0
1.0
1.0
1.0
1.0
1.0
1.0
1.0
1.0
1.0
1.0
1.0
1.0
1.0
1.0
1.0
1.0
1.0
1.0
1.0
1.0
1.0
1.0
1.0
1.0
1.0
1.0
1.0
1.0
1.0
1.0
1.0
1.0
1.0
1.0
1.0
1.0
1.0
1.0
1.0
1.0
1.0
1.0
1.0
1.0
1.0
1.0
1.0
1.0
1.0
1.0
1.0018101697692288
1.0020850104332022
1.002889232630672
1.0042978761531176
1.0065620849341324
1.0100230163609674
1.0150405711604835
1.0218878034810635
1.030614573115757
1.0409296714094132
1.052156884819552
1.063298680087332
1.0731950138089328
1.080722545052035
1.0849800533595113
1.0854276515686812
1.0819642544199766
1.0749412147513056
1.065117250716323
1.0535598557113695
1.0414942998065722
1.0301087437318146
1.0203470200134526
1.01274605844061
1.0073815807712898
1.0039509213586388
1.0019571137336232
1.0008989004437796
1.0003833958700445
1.0001519894189412
1.0000560239615202
1.0000192028939257
1.0000061206884172
1.00000181438988
1.0000005004036103
1.0000001284943563
1.0000000307555683
1.0000000068731811
1.0000000014372676
1.0000000002820006
1.0000000000520834
1.000000000009088
1.0000000000015037
1.0000000000002365
1.0000000000000353
1.0000000000000049
1.0000000000000007
1.0
1.0
1.0
1.0
1.0
1.0
1.0
1.0
1.0
1.0
1.0
1.0
1.0
1.0
1.0
1.0
1.0
1.0
1.0
1.0
1.0
1.0
1.0
1.0
1.0
1.0
1.0
1.0
1.0
1.0
1.0
1.0
1.0
1.0
1.0
1.0
1.0
1.0
1.0
1.0
1.0
1.0
1.0
1.0
1.0
1.0
1.0
1.0
1.0
1.0
1.0
1.0
1.0
1.0
1.0105719408876146
1.0121125730229894
1.016502092389591
1.023889450631428
1.0351929013061474
1.0513928723773978
1.0730957741790168
1.1002060763925077
1.1317545202798833
1.1659542502735585
1.200451767220739
1.2326775638211478
1.2601909739967718
1.2809328603864674
1.2933663055688522
1.2965409390712845
1.290118946221435
1.2743884372954817
1.2502748560631167
1.2193459327431126
1.1837791525002692
1.1462401272896274
1.1096300626060658
1.0766972897698721
1.0495660687684283
1.029308701573218
1.0157520336722503
1.0076847106333966
1.0034180877224819
1.0013957955803372
1.0005262899282374
1.0001838497456996
1.0000596000516335
1.000017943728858
1.0000050198767407
1.0000013058091068
1.000000316168071
1.0000000713610453
1.0000000150453305
1.0000000029708696
1.000000000551181
1.0000000000964344
1.0000000000159757
1.0000000000025164
1.0000000000003784
1.0000000000000542
1.0000000000000073
1.0000000000000007
1.0
1.0
1.0
1.0
1.0
1.0
1.0
1.0
1.0
1.0
1.0
1.0
1.0
1.0
1.0
1.0
1.0
1.0
1.0
1.0
1.0
1.0
1.0
1.0
1.0
1.0
1.0
1.0
1.0
1.0
1.0
1.0
1.0
1.0
1.0
1.0
1.0
1.0
1.0
1.0
1.0
1.0
1.0
1.0
1.0
1.0
1.0
1.0
1.0
1.0
1.0
1.0
1.0
1.0543658103982
1.0610174997968898
1.078987746905247
1.1066885548319356
1.1449429790261068
1.1939257961847423
1.2523768584164392
1.3176647430130441
1.3862191178132772
1.45413470655447
1.5177263838169064
1.5738883421262317
1.620229029469951
1.655024239598498
1.6770688558094557
1.6855298753047108
1.6798643753723739
1.6598196730361534
1.6255077945938163
1.5775532084897845
1.5173071989562756
1.447078144084383
1.3702857095380663
1.2914190701182655
1.2156774304575066
1.1482415600418114
1.0932750523079975
1.052928035207398
1.0267538945857075
1.0119903314286478
1.0047953636114575
1.0017361563958722
1.0005763457221006
1.0001767054037716
1.000050203191632
1.0000132385187783
1.0000032442181832
1.0000007398996642
1.0000001573499788
1.0000000312813886
1.0000000058316236
1.0000000010232388
1.0000000001696843
1.0000000000267115
1.0000000000040092
1.0000000000005758
1.0000000000000795
1.0000000000000102
1.000000000000001
1.0
1.0
1.0
1.0
1.0
1.0
1.0
1.0
1.0
1.0
1.0
1.0
1.0
1.0
1.0
1.0
1.0
1.0
1.0
1.0
1.0
1.0
1.0
1.0
1.0
1.0
1.0
1.0
1.0
1.0
1.0
1.0
1.0
1.0
1.0
1.0
1.0
1.0
1.0
1.0
1.0
1.0
1.0
1.0
1.0
1.0
1.0
1.0
1.0
1.0
1.0
1.0
1.2070591695952122
1.2247415254618006
1.2700580509827732
1.3337346941480597
1.4127197230535211
1.5031553479830846
1.5999228726450998
1.6975766394802372
1.7912421653512502
1.8771748445418275
1.9529169004161324
2.0171243246652564
2.06921049527848
2.1089668886271715
2.1362342066574667
2.150672886344698
2.1516673847178023
2.1383436371380355
2.10964679909927
2.06447443180538
2.0019256773552625
1.9216686854062948
1.8243973372862063
1.712344786615918
1.5897422948539295
1.4630165586340556
1.340425811816573
1.230843503436539
1.141774405007231
1.0772805974287822
1.036705767222441
1.015058967784853
1.0053834316119223
1.001716860872572
1.0004991277217143
1.000133780453607
1.0000332178719527
1.000007660112263
1.0000016439950876
1.0000003291857658
1.000000061685727
1.0000000108573168
1.0000000018024908
1.0000000002835399
1.0000000000424611
1.0000000000060814
1.0000000000008367
1.0000000000001106
1.0000000000000138
1.0000000000000013
1.0
1.0
1.0
1.0
1.0
1.0
1.0
1.0
1.0
1.0
1.0
1.0
1.0
1.0
1.0
1.0
1.0
1.0
1.0
1.0
1.0
1.0
1.0
1.0
1.0
1.0
1.0
1.0
1.0
1.0
1.0
1.0
1.0
1.0
1.0
1.0
1.0
1.0
1.0
1.0
1.0
1.0
1.0
1.0
1.0
1.0
1.0
1.0
1.0
1.0
1.0
1.5468844120002199
1.5743840837454426
1.6426638907578073
1.7324336268385052
1.8344430992509682
1.9407213676912747
2.044446243724257
2.1405802391444646
2.2261290275260888
2.2999427850509706
2.362240263985565
2.414035000556085
2.4565804643203917
2.4909342107939443
2.517684378055055
2.5368101550802553
2.5476587211437747
2.549010330358277
2.539140120034959
2.5158747593424504
2.476710885557152
2.4189943763711206
2.340207139437981
2.2384370596690375
2.1130704614370517
1.965690740586325
1.8010272984040983
1.6275922096774682
1.4574599670395134
1.3045470022997185
1.1811184574261013
1.0937945376115359
1.0412740586757754
1.015256798268123
1.0048062031320453
1.001337420420626
1.0003387121343643
1.0000791427318432
1.0000171564817724
1.0000034619522955
1.0000006523382794
1.000000115206631
1.000000019150217
1.0000000030101952
1.0000000004496568
1.0000000000641476
1.0000000000087814
1.0000000000011586
1.0000000000001474
1.0000000000000182
1.000000000000002
1.0000000000000002
1.0
1.0
1.0
1.0
1.0
1.0
1.0
1.0
1.0
1.0
1.0
1.0
1.0
1.0
1.0
1.0
1.0
1.0
1.0
1.0
1.0
1.0
1.0
1.0
1.0
1.0
1.0
1.0
1.0
1.0
1.0
1.0
1.0
1.0
1.0
1.0
1.0
1.0
1.0
1.0
1.0
1.0
1.0
1.0
1.0
1.0
1.0
1.0
1.0
2.050048178634232
2.073828195644893
2.133512443525122
2.210728108295427
2.2935889584994795
2.373612961713273
2.4456588585975965
2.5073156983791813
2.5583294503873777
2.599910409333041
2.6340488690562136
2.6629634536321705
2.688674091719042
2.7126413436668133
2.7355950780940077
2.757521402532983
2.777698439603904
2.7947869240664467
2.8069075056851025
2.8116958541673527
2.806309820194356
2.7874017780801497
2.7511507244072018
2.6933910893120148
2.609906229515418
2.4969913300276336
2.3523987861236657
2.176727513885246
1.9750994972357017
1.7585234032609232
1.543896144701392
1.3514850866246604
1.1992396939950556
1.0959997563736248
1.0381611098944976
1.0123855339921604
1.0033741032278816
1.0008121616599275
1.0001786368953356
1.0000363757373258
1.0000068964968074
1.0000012224874988
1.0000002034978763
1.000000031964435
1.00000000476209
1.0000000006764282
1.0000000000920752
1.0000000000120675
1.0000000000015292
1.0000000000001878
1.0000000000000222
1.0000000000000024
1.0000000000000002
1.0
1.0
1.0
1.0
1.0
1.0
1.0
1.0
1.0
1.0
1.0
1.0
1.0
1.0
1.0
1.0
1.0
1.0
1.0
1.0
1.0
1.0
1.0
1.0
1.0
1.0
1.0
1.0
1.0
1.0
1.0
1.0
1.0
1.0
1.0
1.0
1.0
1.0
1.0
1.0
1.0
1.0
1.0
1.0
1.0
1.0
1.0
1.0
2.58722151373858
2.591178149048279
2.6070033140364854
2.6339951474247227
2.66342665196204
2.6893148425579656
2.709128937271996
2.7225550960311855
2.73076883104871
2.735770359518044
2.739829713389576
2.7451551093026314
2.7536609561557346
2.7666437899618876
2.784657417014618
2.807575727248183
2.8346254797990524
2.864449123116905
2.8952364076814634
2.9248335734472155
2.9506843543345465
2.969720643168879
2.9782928725416
2.9721075673726958
2.9461996023672863
2.894999827229339
2.812608766317978
2.6934499778696255
2.5335213469009865
2.3324203130007493
2.0960182053220247
1.838836743535154
1.5842057315839444
1.3601315655700175
1.1900550490950752
1.0826493932789887
1.0286501278657627
1.007914273578718
1.001835958991966
1.0003810090878085
1.0000728548476046
1.000012971629369
1.0000021629300608
1.000000339510402
1.0000000504391866
1.0000000071315946
1.0000000009648529
1.0000000001255442
1.0000000000157825
1.0000000000019242
1.0000000000002278
1.000000000000026
1.0000000000000027
1.0000000000000002
1.0
1.0
1.0
1.0
1.0
1.0
1.0
1.0
1.0
1.0
1.0
1.0
1.0
1.0
1.0
1.0
1.0
1.0
1.0
1.0
1.0
1.0
1.0
1.0
1.0
1.0
1.0
1.0
1.0
1.0
1.0
1.0
1.0
1.0
1.0
1.0
1.0
1.0
1.0
1.0
1.0
1.0
1.0
1.0
1.0
1.0
1.0
3.033676237472862
3.0092017385715466
2.9632389910636316
2.923052804645883
2.8865643290957768
2.8513298429516354
2.8167735594628383
2.783311443224251
2.752093678549119
2.7246689816454777
2.7026645635575695
2.687668498124913
2.6811190590977545
2.6839664323024452
2.69655371491839
2.718691588340432
2.7496392015785656
2.788103134774806
2.8324108773200916
2.8806818775099914
2.9307500768225876
2.9800463277391174
3.0255195048505534
3.0635361682878717
3.0897643135336903
3.099055229192012
3.085351462312759
3.0416881389667947
2.960440577583622
2.8340990376264488
2.6569580415083496
2.428049190348498
2.155187039084944
1.8585349530813686
1.5702977399932658
1.3271806920652458
1.155573956459094
1.0586102358947873
1.016977262874363
1.003887706508372
1.0007656285532007
1.0001375282940546
1.000022992220681
1.0000036071843539
1.0000005343361245
1.0000000751781029
1.0000000101045639
1.000000001304572
1.0000000001625895
1.000000000019646
1.0000000000023097
1.0000000000002645
1.000000000000029
1.0000000000000029
1.0000000000000002
1.0
1.0
1.0
1.0
1.0
1.0
1.0
1.0
1.0
1.0
1.0
1.0
1.0
1.0
1.0
1.0
1.0
1.0
1.0
1.0
1.0
1.0
1.0
1.0
1.0
1.0
1.0
1.0
1.0
1.0
1.0
1.0
1.0
1.0
1.0
1.0
1.0
1.0
1.0
1.0
1.0
1.0
1.0
1.0
1.0
1.0
3.3338370872548566
3.280061810058047
3.1712761077913303
3.064779780554095
2.965676467977012
2.8747863458531735
2.7927124677228057
2.719701742811858
2.6561090300615686
2.6024884364971372
2.55950651148836
2.527947867965066
2.508660813009698
2.5022383487508297
2.508884492428117
2.5284486645573607
2.5603397628367093
2.6034505913547656
2.656291683780574
2.7172111670952654
2.784377351535626
2.8556670835362734
2.9285940517187683
3.000217794415061
3.0670335918064335
3.1248467620436946
3.1686247132063845
3.19232362220649
3.1887175393628597
3.1493228606417967
3.0646405087499917
2.9251615690876216
2.723780166016175
2.4601357661100667
2.146537790772451
1.8124686802345509
1.5019125369414799
1.2589910914781983
1.106141018099875
1.0328980562987016
1.0076467051335607
1.001444561776436
1.000244116982953
1.0000383307688578
1.000005661742357
1.000000792406571
1.0000001057561128
1.0000000135392835
1.0000000016716601
1.0000000001999867
1.0000000000232752
1.0000000000026439
1.0000000000002933
1.0000000000000315
1.000000000000003
1.0000000000000002
1.0
1.0
1.0
1.0
1.0
1.0
1.0
1.0
1.0
1.0
1.0
1.0
1.0
1.0
1.0
1.0
1.0
1.0
1.0
1.0
1.0
1.0
1.0
1.0
1.0
1.0
1.0
1.0
1.0
1.0
1.0
1.0
1.0
1.0
1.0
1.0
1.0
1.0
1.0
1.0
1.0
1.0
1.0
1.0
1.0
3.489653842226529
3.4092796387207693
3.244241246100411
3.0800365311147893
2.928006460330271
2.791208415661081
2.6708102686062523
2.5665159502446486
2.4776636597628308
2.4037084434025333
2.3443411919325636
2.2995371088069474
2.269520404612122
2.2545423942504224
2.254731535139017
2.2700469453185415
2.30014736013805
2.3442490305596966
2.4011304574752104
2.4693413463662646
2.5473225715959056
2.633335738551747
2.725376761930552
2.8210838158032363
2.917634605363277
3.0116467902125565
3.099073090884944
3.1750654183341167
3.233784746294311
3.2681506467239934
3.269567496859065
3.2277664708334024
3.1311167335563512
2.968127631134471
2.73115835914493
2.4230037290399364
2.0651137868691727
1.7014445304903527
1.3890379930943904
1.1722826145486551
1.0574237880998303
1.0138515803730839
1.0025491795997912
1.0004064660912655
1.0000599882610883
1.0000083513334346
1.0000011061467886
1.0000001403249936
1.00000001715029
1.0000000020297148
1.0000000002336145
1.000000000026244
1.0000000000028861
1.0000000000003113
1.0000000000000326
1.000000000000003
1.0000000000000002
1.0
1.0
1.0
1.0
1.0
1.0
1.0
1.0
1.0
1.0
1.0
1.0
1.0
1.0
1.0
1.0
1.0
1.0
1.0
1.0
1.0
1.0
1.0
1.0
1.0
1.0
1.0
1.0
1.0
1.0
1.0
1.0
1.0
1.0
1.0
1.0
1.0
1.0
1.0
1.0
1.0
1.0
1.0
1.0
3.5296091752884955
3.425695033566937
3.2115033318827986
2.998661710382758
2.803865087785722
2.6310287115604964
2.481200490932588
2.3532939897343548
2.2455987583716643
2.156531576692653
2.0848916125740575
2.029910351567113
1.9911990052764916
1.9686391173075162
1.9622649956313323
1.972139411619756
1.9981951705951635
2.0400546961862114
2.096895965748244
2.1675255067808443
2.25061500961941
2.3447851475757604
2.448507845505602
2.5599771808555434
2.6769791657756628
2.796786417708834
2.9160838796825876
3.030900013647054
3.1365081025459713
3.2272632549449565
3.296343112343105
3.3353826852703206
3.3340660193662917
3.2799100319392047
3.1588517315881472
2.957834133765373
2.670865225698907
2.3089671358290613
1.9100050909717008
1.5370747282579347
1.254603353831138
1.0908465733183188
1.022994712349127
1.0041904397396062
1.0006332964396127
1.0000879700745366
1.000011561271726
1.0000014522083556
1.0000001755330108
1.000000020532057
1.0000000023349653
1.000000000259163
1.0000000000281628
1.0000000000030043
1.000000000000315
1.000000000000032
1.0000000000000029
1.0000000000000002
1.0
1.0
1.0
1.0
1.0
1.0
1.0
1.0
1.0
1.0
1.0
1.0
1.0
1.0
1.0
1.0
1.0
1.0
1.0
1.0
1.0
1.0
1.0
1.0
1.0
1.0
1.0
1.0
1.0
1.0
1.0
1.0
1.0
1.0
1.0
1.0
1.0
1.0
1.0
1.0
1.0
1.0
1.0
3.4863906540417657
3.361171073873386
3.1029546262067202
2.8484543873128323
2.619442067558784
2.419301328736803
2.2481068735678424
2.1036342307926463
1.9830677625309514
1.8838551913722197
1.8039918202722045
1.742046592763164
1.6970843132094147
1.6685891647981208
1.656386026179175
1.6605286648623039
1.6811443467173626
1.7182335744501276
1.7714646717848115
1.8400595867905007
1.9229424100431283
2.0190345124016953
2.1273076550251937
2.2465914889234244
2.375360345566002
2.511569601270323
2.652563171130931
2.7950306984849744
2.934977388677195
3.067675206196999
3.1875551387494436
3.2879882437024834
3.3609078087693898
3.3962708988468506
3.3814914258611193
3.3012956902174952
3.139120385080597
2.8819794724198013
2.530544729879618
2.113039333067654
1.692188513899424
1.3477128869603463