# vtk DataFile Version 3.0 
shock_diffraction_time_series_220_.vtk
ASCII
DATASET UNSTRUCTURED_GRID
POINTS         10201 double
0.0 0.0 0.0
0.01 0.0 0.0
0.02 0.0 0.0
0.03 0.0 0.0
0.04 0.0 0.0
0.05 0.0 0.0
0.06 0.0 0.0
0.07 0.0 0.0
0.08 0.0 0.0
0.09 0.0 0.0
0.1 0.0 0.0
0.11 0.0 0.0
0.12 0.0 0.0
0.13 0.0 0.0
0.14 0.0 0.0
0.15 0.0 0.0
0.16 0.0 0.0
0.17 0.0 0.0
0.18 0.0 0.0
0.19 0.0 0.0
0.2 0.0 0.0
0.21 0.0 0.0
0.22 0.0 0.0
0.23 0.0 0.0
0.24 0.0 0.0
0.25 0.0 0.0
0.26 0.0 0.0
0.27 0.0 0.0
0.28 0.0 0.0
0.29 0.0 0.0
0.3 0.0 0.0
0.31 0.0 0.0
0.32 0.0 0.0
0.33 0.0 0.0
0.34 0.0 0.0
0.35000000000000003 0.0 0.0
0.36 0.0 0.0
0.37 0.0 0.0
0.38 0.0 0.0
0.39 0.0 0.0
0.4 0.0 0.0
0.41000000000000003 0.0 0.0
0.42 0.0 0.0
0.43 0.0 0.0
0.44 0.0 0.0
0.45 0.0 0.0
0.46 0.0 0.0
0.47000000000000003 0.0 0.0
0.48 0.0 0.0
0.49 0.0 0.0
0.5 0.0 0.0
0.51 0.0 0.0
0.52 0.0 0.0
0.53 0.0 0.0
0.54 0.0 0.0
0.55 0.0 0.0
0.56 0.0 0.0
0.5700000000000001 0.0 0.0
0.58 0.0 0.0
0.59 0.0 0.0
0.6 0.0 0.0
0.61 0.0 0.0
0.62 0.0 0.0
0.63 0.0 0.0
0.64 0.0 0.0
0.65 0.0 0.0
0.66 0.0 0.0
0.67 0.0 0.0
0.68 0.0 0.0
0.6900000000000001 0.0 0.0
0.7000000000000001 0.0 0.0
0.71 0.0 0.0
0.72 0.0 0.0
0.73 0.0 0.0
0.74 0.0 0.0
0.75 0.0 0.0
0.76 0.0 0.0
0.77 0.0 0.0
0.78 0.0 0.0
0.79 0.0 0.0
0.8 0.0 0.0
0.81 0.0 0.0
0.8200000000000001 0.0 0.0
0.8300000000000001 0.0 0.0
0.84 0.0 0.0
0.85 0.0 0.0
0.86 0.0 0.0
0.87 0.0 0.0
0.88 0.0 0.0
0.89 0.0 0.0
0.9 0.0 0.0
0.91 0.0 0.0
0.92 0.0 0.0
0.93 0.0 0.0
0.9400000000000001 0.0 0.0
0.9500000000000001 0.0 0.0
0.96 0.0 0.0
0.97 0.0 0.0
0.98 0.0 0.0
0.99 0.0 0.0
1.0 0.0 0.0
0.0 0.01 0.0
0.01 0.01 0.0
0.02 0.01 0.0
0.03 0.01 0.0
0.04 0.01 0.0
0.05 0.01 0.0
0.06 0.01 0.0
0.07 0.01 0.0
0.08 0.01 0.0
0.09 0.01 0.0
0.1 0.01 0.0
0.11 0.01 0.0
0.12 0.01 0.0
0.13 0.01 0.0
0.14 0.01 0.0
0.15 0.01 0.0
0.16 0.01 0.0
0.17 0.01 0.0
0.18 0.01 0.0
0.19 0.01 0.0
0.2 0.01 0.0
0.21 0.01 0.0
0.22 0.01 0.0
0.23 0.01 0.0
0.24 0.01 0.0
0.25 0.01 0.0
0.26 0.01 0.0
0.27 0.01 0.0
0.28 0.01 0.0
0.29 0.01 0.0
0.3 0.01 0.0
0.31 0.01 0.0
0.32 0.01 0.0
0.33 0.01 0.0
0.34 0.01 0.0
0.35000000000000003 0.01 0.0
0.36 0.01 0.0
0.37 0.01 0.0
0.38 0.01 0.0
0.39 0.01 0.0
0.4 0.01 0.0
0.41000000000000003 0.01 0.0
0.42 0.01 0.0
0.43 0.01 0.0
0.44 0.01 0.0
0.45 0.01 0.0
0.46 0.01 0.0
0.47000000000000003 0.01 0.0
0.48 0.01 0.0
0.49 0.01 0.0
0.5 0.01 0.0
0.51 0.01 0.0
0.52 0.01 0.0
0.53 0.01 0.0
0.54 0.01 0.0
0.55 0.01 0.0
0.56 0.01 0.0
0.5700000000000001 0.01 0.0
0.58 0.01 0.0
0.59 0.01 0.0
0.6 0.01 0.0
0.61 0.01 0.0
0.62 0.01 0.0
0.63 0.01 0.0
0.64 0.01 0.0
0.65 0.01 0.0
0.66 0.01 0.0
0.67 0.01 0.0
0.68 0.01 0.0
0.6900000000000001 0.01 0.0
0.7000000000000001 0.01 0.0
0.71 0.01 0.0
0.72 0.01 0.0
0.73 0.01 0.0
0.74 0.01 0.0
0.75 0.01 0.0
0.76 0.01 0.0
0.77 0.01 0.0
0.78 0.01 0.0
0.79 0.01 0.0
0.8 0.01 0.0
0.81 0.01 0.0
0.8200000000000001 0.01 0.0
0.8300000000000001 0.01 0.0
0.84 0.01 0.0
0.85 0.01 0.0
0.86 0.01 0.0
0.87 0.01 0.0
0.88 0.01 0.0
0.89 0.01 0.0
0.9 0.01 0.0
0.91 0.01 0.0
0.92 0.01 0.0
0.93 0.01 0.0
0.9400000000000001 0.01 0.0
0.9500000000000001 0.01 0.0
0.96 0.01 0.0
0.97 0.01 0.0
0.98 0.01 0.0
0.99 0.01 0.0
1.0 0.01 0.0
0.0 0.02 0.0
0.01 0.02 0.0
0.02 0.02 0.0
0.03 0.02 0.0
0.04 0.02 0.0
0.05 0.02 0.0
0.06 0.02 0.0
0.07 0.02 0.0
0.08 0.02 0.0
0.09 0.02 0.0
0.1 0.02 0.0
0.11 0.02 0.0
0.12 0.02 0.0
0.13 0.02 0.0
0.14 0.02 0.0
0.15 0.02 0.0
0.16 0.02 0.0
0.17 0.02 0.0
0.18 0.02 0.0
0.19 0.02 0.0
0.2 0.02 0.0
0.21 0.02 0.0
0.22 0.02 0.0
0.23 0.02 0.0
0.24 0.02 0.0
0.25 0.02 0.0
0.26 0.02 0.0
0.27 0.02 0.0
0.28 0.02 0.0
0.29 0.02 0.0
0.3 0.02 0.0
0.31 0.02 0.0
0.32 0.02 0.0
0.33 0.02 0.0
0.34 0.02 0.0
0.35000000000000003 0.02 0.0
0.36 0.02 0.0
0.37 0.02 0.0
0.38 0.02 0.0
0.39 0.02 0.0
0.4 0.02 0.0
0.41000000000000003 0.02 0.0
0.42 0.02 0.0
0.43 0.02 0.0
0.44 0.02 0.0
0.45 0.02 0.0
0.46 0.02 0.0
0.47000000000000003 0.02 0.0
0.48 0.02 0.0
0.49 0.02 0.0
0.5 0.02 0.0
0.51 0.02 0.0
0.52 0.02 0.0
0.53 0.02 0.0
0.54 0.02 0.0
0.55 0.02 0.0
0.56 0.02 0.0
0.5700000000000001 0.02 0.0
0.58 0.02 0.0
0.59 0.02 0.0
0.6 0.02 0.0
0.61 0.02 0.0
0.62 0.02 0.0
0.63 0.02 0.0
0.64 0.02 0.0
0.65 0.02 0.0
0.66 0.02 0.0
0.67 0.02 0.0
0.68 0.02 0.0
0.6900000000000001 0.02 0.0
0.7000000000000001 0.02 0.0
0.71 0.02 0.0
0.72 0.02 0.0
0.73 0.02 0.0
0.74 0.02 0.0
0.75 0.02 0.0
0.76 0.02 0.0
0.77 0.02 0.0
0.78 0.02 0.0
0.79 0.02 0.0
0.8 0.02 0.0
0.81 0.02 0.0
0.8200000000000001 0.02 0.0
0.8300000000000001 0.02 0.0
0.84 0.02 0.0
0.85 0.02 0.0
0.86 0.02 0.0
0.87 0.02 0.0
0.88 0.02 0.0
0.89 0.02 0.0
0.9 0.02 0.0
0.91 0.02 0.0
0.92 0.02 0.0
0.93 0.02 0.0
0.9400000000000001 0.02 0.0
0.9500000000000001 0.02 0.0
0.96 0.02 0.0
0.97 0.02 0.0
0.98 0.02 0.0
0.99 0.02 0.0
1.0 0.02 0.0
0.0 0.03 0.0
0.01 0.03 0.0
0.02 0.03 0.0
0.03 0.03 0.0
0.04 0.03 0.0
0.05 0.03 0.0
0.06 0.03 0.0
0.07 0.03 0.0
0.08 0.03 0.0
0.09 0.03 0.0
0.1 0.03 0.0
0.11 0.03 0.0
0.12 0.03 0.0
0.13 0.03 0.0
0.14 0.03 0.0
0.15 0.03 0.0
0.16 0.03 0.0
0.17 0.03 0.0
0.18 0.03 0.0
0.19 0.03 0.0
0.2 0.03 0.0
0.21 0.03 0.0
0.22 0.03 0.0
0.23 0.03 0.0
0.24 0.03 0.0
0.25 0.03 0.0
0.26 0.03 0.0
0.27 0.03 0.0
0.28 0.03 0.0
0.29 0.03 0.0
0.3 0.03 0.0
0.31 0.03 0.0
0.32 0.03 0.0
0.33 0.03 0.0
0.34 0.03 0.0
0.35000000000000003 0.03 0.0
0.36 0.03 0.0
0.37 0.03 0.0
0.38 0.03 0.0
0.39 0.03 0.0
0.4 0.03 0.0
0.41000000000000003 0.03 0.0
0.42 0.03 0.0
0.43 0.03 0.0
0.44 0.03 0.0
0.45 0.03 0.0
0.46 0.03 0.0
0.47000000000000003 0.03 0.0
0.48 0.03 0.0
0.49 0.03 0.0
0.5 0.03 0.0
0.51 0.03 0.0
0.52 0.03 0.0
0.53 0.03 0.0
0.54 0.03 0.0
0.55 0.03 0.0
0.56 0.03 0.0
0.5700000000000001 0.03 0.0
0.58 0.03 0.0
0.59 0.03 0.0
0.6 0.03 0.0
0.61 0.03 0.0
0.62 0.03 0.0
0.63 0.03 0.0
0.64 0.03 0.0
0.65 0.03 0.0
0.66 0.03 0.0
0.67 0.03 0.0
0.68 0.03 0.0
0.6900000000000001 0.03 0.0
0.7000000000000001 0.03 0.0
0.71 0.03 0.0
0.72 0.03 0.0
0.73 0.03 0.0
0.74 0.03 0.0
0.75 0.03 0.0
0.76 0.03 0.0
0.77 0.03 0.0
0.78 0.03 0.0
0.79 0.03 0.0
0.8 0.03 0.0
0.81 0.03 0.0
0.8200000000000001 0.03 0.0
0.8300000000000001 0.03 0.0
0.84 0.03 0.0
0.85 0.03 0.0
0.86 0.03 0.0
0.87 0.03 0.0
0.88 0.03 0.0
0.89 0.03 0.0
0.9 0.03 0.0
0.91 0.03 0.0
0.92 0.03 0.0
0.93 0.03 0.0
0.9400000000000001 0.03 0.0
0.9500000000000001 0.03 0.0
0.96 0.03 0.0
0.97 0.03 0.0
0.98 0.03 0.0
0.99 0.03 0.0
1.0 0.03 0.0
0.0 0.04 0.0
0.01 0.04 0.0
0.02 0.04 0.0
0.03 0.04 0.0
0.04 0.04 0.0
0.05 0.04 0.0
0.06 0.04 0.0
0.07 0.04 0.0
0.08 0.04 0.0
0.09 0.04 0.0
0.1 0.04 0.0
0.11 0.04 0.0
0.12 0.04 0.0
0.13 0.04 0.0
0.14 0.04 0.0
0.15 0.04 0.0
0.16 0.04 0.0
0.17 0.04 0.0
0.18 0.04 0.0
0.19 0.04 0.0
0.2 0.04 0.0
0.21 0.04 0.0
0.22 0.04 0.0
0.23 0.04 0.0
0.24 0.04 0.0
0.25 0.04 0.0
0.26 0.04 0.0
0.27 0.04 0.0
0.28 0.04 0.0
0.29 0.04 0.0
0.3 0.04 0.0
0.31 0.04 0.0
0.32 0.04 0.0
0.33 0.04 0.0
0.34 0.04 0.0
0.35000000000000003 0.04 0.0
0.36 0.04 0.0
0.37 0.04 0.0
0.38 0.04 0.0
0.39 0.04 0.0
0.4 0.04 0.0
0.41000000000000003 0.04 0.0
0.42 0.04 0.0
0.43 0.04 0.0
0.44 0.04 0.0
0.45 0.04 0.0
0.46 0.04 0.0
0.47000000000000003 0.04 0.0
0.48 0.04 0.0
0.49 0.04 0.0
0.5 0.04 0.0
0.51 0.04 0.0
0.52 0.04 0.0
0.53 0.04 0.0
0.54 0.04 0.0
0.55 0.04 0.0
0.56 0.04 0.0
0.5700000000000001 0.04 0.0
0.58 0.04 0.0
0.59 0.04 0.0
0.6 0.04 0.0
0.61 0.04 0.0
0.62 0.04 0.0
0.63 0.04 0.0
0.64 0.04 0.0
0.65 0.04 0.0
0.66 0.04 0.0
0.67 0.04 0.0
0.68 0.04 0.0
0.6900000000000001 0.04 0.0
0.7000000000000001 0.04 0.0
0.71 0.04 0.0
0.72 0.04 0.0
0.73 0.04 0.0
0.74 0.04 0.0
0.75 0.04 0.0
0.76 0.04 0.0
0.77 0.04 0.0
0.78 0.04 0.0
0.79 0.04 0.0
0.8 0.04 0.0
0.81 0.04 0.0
0.8200000000000001 0.04 0.0
0.8300000000000001 0.04 0.0
0.84 0.04 0.0
0.85 0.04 0.0
0.86 0.04 0.0
0.87 0.04 0.0
0.88 0.04 0.0
0.89 0.04 0.0
0.9 0.04 0.0
0.91 0.04 0.0
0.92 0.04 0.0
0.93 0.04 0.0
0.9400000000000001 0.04 0.0
0.9500000000000001 0.04 0.0
0.96 0.04 0.0
0.97 0.04 0.0
0.98 0.04 0.0
0.99 0.04 0.0
1.0 0.04 0.0
0.0 0.05 0.0
0.01 0.05 0.0
0.02 0.05 0.0
0.03 0.05 0.0
0.04 0.05 0.0
0.05 0.05 0.0
0.06 0.05 0.0
0.07 0.05 0.0
0.08 0.05 0.0
0.09 0.05 0.0
0.1 0.05 0.0
0.11 0.05 0.0
0.12 0.05 0.0
0.13 0.05 0.0
0.14 0.05 0.0
0.15 0.05 0.0
0.16 0.05 0.0
0.17 0.05 0.0
0.18 0.05 0.0
0.19 0.05 0.0
0.2 0.05 0.0
0.21 0.05 0.0
0.22 0.05 0.0
0.23 0.05 0.0
0.24 0.05 0.0
0.25 0.05 0.0
0.26 0.05 0.0
0.27 0.05 0.0
0.28 0.05 0.0
0.29 0.05 0.0
0.3 0.05 0.0
0.31 0.05 0.0
0.32 0.05 0.0
0.33 0.05 0.0
0.34 0.05 0.0
0.35000000000000003 0.05 0.0
0.36 0.05 0.0
0.37 0.05 0.0
0.38 0.05 0.0
0.39 0.05 0.0
0.4 0.05 0.0
0.41000000000000003 0.05 0.0
0.42 0.05 0.0
0.43 0.05 0.0
0.44 0.05 0.0
0.45 0.05 0.0
0.46 0.05 0.0
0.47000000000000003 0.05 0.0
0.48 0.05 0.0
0.49 0.05 0.0
0.5 0.05 0.0
0.51 0.05 0.0
0.52 0.05 0.0
0.53 0.05 0.0
0.54 0.05 0.0
0.55 0.05 0.0
0.56 0.05 0.0
0.5700000000000001 0.05 0.0
0.58 0.05 0.0
0.59 0.05 0.0
0.6 0.05 0.0
0.61 0.05 0.0
0.62 0.05 0.0
0.63 0.05 0.0
0.64 0.05 0.0
0.65 0.05 0.0
0.66 0.05 0.0
0.67 0.05 0.0
0.68 0.05 0.0
0.6900000000000001 0.05 0.0
0.7000000000000001 0.05 0.0
0.71 0.05 0.0
0.72 0.05 0.0
0.73 0.05 0.0
0.74 0.05 0.0
0.75 0.05 0.0
0.76 0.05 0.0
0.77 0.05 0.0
0.78 0.05 0.0
0.79 0.05 0.0
0.8 0.05 0.0
0.81 0.05 0.0
0.8200000000000001 0.05 0.0
0.8300000000000001 0.05 0.0
0.84 0.05 0.0
0.85 0.05 0.0
0.86 0.05 0.0
0.87 0.05 0.0
0.88 0.05 0.0
0.89 0.05 0.0
0.9 0.05 0.0
0.91 0.05 0.0
0.92 0.05 0.0
0.93 0.05 0.0
0.9400000000000001 0.05 0.0
0.9500000000000001 0.05 0.0
0.96 0.05 0.0
0.97 0.05 0.0
0.98 0.05 0.0
0.99 0.05 0.0
1.0 0.05 0.0
0.0 0.06 0.0
0.01 0.06 0.0
0.02 0.06 0.0
0.03 0.06 0.0
0.04 0.06 0.0
0.05 0.06 0.0
0.06 0.06 0.0
0.07 0.06 0.0
0.08 0.06 0.0
0.09 0.06 0.0
0.1 0.06 0.0
0.11 0.06 0.0
0.12 0.06 0.0
0.13 0.06 0.0
0.14 0.06 0.0
0.15 0.06 0.0
0.16 0.06 0.0
0.17 0.06 0.0
0.18 0.06 0.0
0.19 0.06 0.0
0.2 0.06 0.0
0.21 0.06 0.0
0.22 0.06 0.0
0.23 0.06 0.0
0.24 0.06 0.0
0.25 0.06 0.0
0.26 0.06 0.0
0.27 0.06 0.0
0.28 0.06 0.0
0.29 0.06 0.0
0.3 0.06 0.0
0.31 0.06 0.0
0.32 0.06 0.0
0.33 0.06 0.0
0.34 0.06 0.0
0.35000000000000003 0.06 0.0
0.36 0.06 0.0
0.37 0.06 0.0
0.38 0.06 0.0
0.39 0.06 0.0
0.4 0.06 0.0
0.41000000000000003 0.06 0.0
0.42 0.06 0.0
0.43 0.06 0.0
0.44 0.06 0.0
0.45 0.06 0.0
0.46 0.06 0.0
[...]
POINT_DATA  10201
FIELD  FlowField  4
Density    1 10201  double
1.0000000000001372
1.0000000000001483
1.0000000000001794
1.0000000000002243
1.0000000000002762
1.0000000000003262
1.0000000000003633
1.0000000000003793
1.00000000000037
1.0000000000003355
1.0000000000002829
1.0000000000002216
1.0000000000001608
1.0000000000001081
1.0000000000000675
1.0000000000000389
1.0000000000000207
1.0000000000000102
1.0000000000000044
1.0000000000000018
1.0000000000000004
1.0
1.0
1.0
1.0
1.0
1.0
1.0
1.0
1.0
1.0
1.0
1.0
1.0
1.0
1.0
1.0
1.0
1.0
1.0
1.0
1.0
1.0
1.0
1.0
1.0
1.0
1.0
1.0
1.0
1.0
1.0
1.0
1.0
1.0
1.0
1.0
1.0
1.0
1.0
1.0
1.0
1.0
1.0
1.0
1.0
1.0
1.0
1.0
1.0
1.0
1.0
1.0
1.0
1.0
1.0
1.0
1.0
1.0
1.0
1.0
1.0
1.0
1.0
1.0
1.0
1.0
1.0
1.0
1.0
1.0
1.0
1.0
1.0
1.0
1.0
1.0
1.0
1.0
1.0
1.0
1.0000000000004956
1.0000000000005393
1.0000000000006615
1.0000000000008413
1.0000000000010534
1.0000000000012645
1.0000000000014353
1.0000000000015286
1.0000000000015208
1.0000000000014089
1.0000000000012137
1.0000000000009708
1.0000000000007203
1.0000000000004956
1.0000000000003157
1.0000000000001863
1.0000000000001015
1.0000000000000513
1.000000000000024
1.00000000000001
1.0000000000000036
1.0000000000000013
1.0000000000000002
1.0
1.0
1.0
1.0
1.0
1.0
1.0
1.0
1.0
1.0
1.0
1.0
1.0
1.0
1.0
1.0
1.0
1.0
1.0
1.0
1.0
1.0
1.0
1.0
1.0
1.0
1.0
1.0
1.0
1.0
1.0
1.0
1.0
1.0
1.0
1.0
1.0
1.0
1.0
1.0
1.0
1.0
1.0
1.0
1.0
1.0
1.0
1.0
1.0
1.0
1.0
1.0
1.0
1.0
1.0
1.0
1.0
1.0
1.0
1.0
1.0
1.0
1.0
1.0
1.0
1.0
1.0
1.0
1.0
1.0
1.0
1.0
1.0
1.0
1.0
1.0
1.0
1.0
1.0000000000030576
1.000000000003352
1.0000000000041767
1.0000000000054121
1.0000000000069122
1.0000000000084714
1.000000000009825
1.0000000000106992
1.0000000000108888
1.0000000000103237
1.000000000009101
1.0000000000074498
1.0000000000056573
1.0000000000039824
1.0000000000025975
1.0000000000015687
1.0000000000008773
1.0000000000004543
1.0000000000002176
1.000000000000096
1.000000000000039
1.0000000000000147
1.0000000000000049
1.0000000000000013
1.0000000000000002
1.0
1.0
1.0
1.0
1.0
1.0
1.0
1.0
1.0
1.0
1.0
1.0
1.0
1.0
1.0
1.0
1.0
1.0
1.0
1.0
1.0
1.0
1.0
1.0
1.0
1.0
1.0
1.0
1.0
1.0
1.0
1.0
1.0
1.0
1.0
1.0
1.0
1.0
1.0
1.0
1.0
1.0
1.0
1.0
1.0
1.0
1.0
1.0
1.0
1.0
1.0
1.0
1.0
1.0
1.0
1.0
1.0
1.0
1.0
1.0
1.0
1.0
1.0
1.0
1.0
1.0
1.0
1.0
1.0
1.0
1.0
1.0
1.0
1.0
1.0
1.0
1.0000000000187168
1.0000000000206635
1.0000000000261522
1.00000000003452
1.0000000000449707
1.0000000000562657
1.0000000000666744
1.0000000000742384
1.000000000077286
1.0000000000749836
1.0000000000676499
1.0000000000566727
1.0000000000440399
1.000000000031722
1.0000000000211677
1.0000000000130798
1.0000000000074816
1.0000000000039606
1.0000000000019398
1.0000000000008786
1.0000000000003681
1.0000000000001423
1.0000000000000508
1.0000000000000167
1.0000000000000049
1.000000000000001
1.0000000000000002
1.0
1.0
1.0
1.0
1.0
1.0
1.0
1.0
1.0
1.0
1.0
1.0
1.0
1.0
1.0
1.0
1.0
1.0
1.0
1.0
1.0
1.0
1.0
1.0
1.0
1.0
1.0
1.0
1.0
1.0
1.0
1.0
1.0
1.0
1.0
1.0
1.0
1.0
1.0
1.0
1.0
1.0
1.0
1.0
1.0
1.0
1.0
1.0
1.0
1.0
1.0
1.0
1.0
1.0
1.0
1.0
1.0
1.0
1.0
1.0
1.0
1.0
1.0
1.0
1.0
1.0
1.0
1.0
1.0
1.0
1.0
1.0
1.0
1.0
1.000000000113817
1.0000000001265301
1.000000000162634
1.0000000002185914
1.0000000002903282
1.0000000003707308
1.000000000448798
1.0000000005109086
1.0000000005441094
1.0000000005402228
1.0000000004988583
1.0000000004277634
1.000000000340227
1.0000000002507963
1.000000000171234
1.0000000001082328
1.0000000000633071
1.0000000000342557
1.0000000000171432
1.0000000000079334
1.0000000000033946
1.000000000001343
1.0000000000004914
1.000000000000166
1.000000000000052
1.0000000000000147
1.0000000000000038
1.0000000000000007
1.0
1.0
1.0
1.0
1.0
1.0
1.0
1.0
1.0
1.0
1.0
1.0
1.0
1.0
1.0
1.0
1.0
1.0
1.0
1.0
1.0
1.0
1.0
1.0
1.0
1.0
1.0
1.0
1.0
1.0
1.0
1.0
1.0
1.0
1.0
1.0
1.0
1.0
1.0
1.0
1.0
1.0
1.0
1.0
1.0
1.0
1.0
1.0
1.0
1.0
1.0
1.0
1.0
1.0
1.0
1.0
1.0
1.0
1.0
1.0
1.0
1.0
1.0
1.0
1.0
1.0
1.0
1.0
1.0
1.0
1.0
1.0
1.0
1.0000000006880851
1.0000000007702228
1.0000000010050467
1.000000001374722
1.0000000018605337
1.000000002423846
1.0000000029969514
1.0000000034877692
1.0000000037997354
1.0000000038608778
1.0000000036495147
1.0000000032035987
1.0000000026083484
1.00000000196803
1.0000000013751067
1.0000000008892744
1.0000000005320193
1.0000000002943361
1.0000000001505391
1.000000000071162
1.000000000031087
1.0000000000125497
1.0000000000046825
1.0000000000016152
1.0000000000005154
1.000000000000152
1.0000000000000413
1.00000000000001
1.0000000000000022
1.0000000000000004
1.0
1.0
1.0
1.0
1.0
1.0
1.0
1.0
1.0
1.0
1.0
1.0
1.0
1.0
1.0
1.0
1.0
1.0
1.0
1.0
1.0
1.0
1.0
1.0
1.0
1.0
1.0
1.0
1.0
1.0
1.0
1.0
1.0
1.0
1.0
1.0
1.0
1.0
1.0
1.0
1.0
1.0
1.0
1.0
1.0
1.0
1.0
1.0
1.0
1.0
1.0
1.0
1.0
1.0
1.0
1.0
1.0
1.0
1.0
1.0
1.0
1.0
1.0
1.0
1.0
1.0
1.0
1.0
1.0
1.0
1.0
1.0000000041383257
1.0000000046636859
1.0000000061748502
1.0000000085892051
1.0000000118379377
1.0000000157272129
1.0000000198558365
1.0000000236193143
1.0000000263217004
1.0000000273718725
1.000000026486989
1.0000000238047089
1.0000000198433403
1.0000000153273234
1.0000000109619585
1.0000000072545248
1.000000004440168
1.0000000025122573
1.0000000013135262
1.000000000634441
1.000000000283027
1.0000000001166014
1.0000000000443652
1.000000000015594
1.0000000000050662
1.0000000000015226
1.0000000000004234
1.0000000000001088
1.0000000000000258
1.0000000000000053
1.0000000000000009
1.0
1.0
1.0
1.0
1.0
1.0
1.0
1.0
1.0
1.0
1.0
1.0
1.0
1.0
1.0
1.0
1.0
1.0
1.0
1.0
1.0
1.0
1.0
1.0
1.0
1.0
1.0
1.0
1.0
1.0
1.0
1.0
1.0
1.0
1.0
1.0
1.0
1.0
1.0
1.0
1.0
1.0
1.0
1.0
1.0
1.0
1.0
1.0
1.0
1.0
1.0
1.0
1.0
1.0
1.0
1.0
1.0
1.0
1.0
1.0
1.0
1.0
1.0
1.0
1.0
1.0
1.0
1.0
1.0
1.0
1.0000000247763854
1.0000000281055514
1.0000000377339855
1.0000000533324256
1.000000074800853
1.0000001012904658
1.0000001305331108
1.0000001586814726
1.0000001808745833
1.0000001924979618
1.000000190704009
1.000000175493942
1.0000001497944995
1.000000118467819
1.0000000867394405
1.0000000587551976
1.0000000367987902
1.0000000212988263
1.0000000113872496
1.0000000056215748
1.0000000025617806
1.0000000010774184
1.0000000004181762
1.0000000001498035
1.0000000000495495
1.0000000000151426
1.0000000000042804
1.0000000000011209
1.0000000000002722
1.000000000000061
1.0000000000000124
1.0000000000000022
1.0000000000000004
1.0
1.0
1.0
1.0
1.0
1.0
1.0
1.0
1.0
1.0
1.0
1.0
1.0
1.0
1.0
1.0
1.0
1.0
1.0
1.0
1.0
1.0
1.0
1.0
1.0
1.0
1.0
1.0
1.0
1.0
1.0
1.0
1.0
1.0
1.0
1.0
1.0
1.0
1.0
1.0
1.0
1.0
1.0
1.0
1.0
1.0
1.0
1.0
1.0
1.0
1.0
1.0
1.0
1.0
1.0
1.0
1.0
1.0
1.0
1.0
1.0
1.0
1.0
1.0
1.0
1.0
1.0
1.0
1.0000001477659537
1.000000168684147
1.000000229465821
1.0000003292193864
1.000000469505001
1.0000006476380374
1.0000008515821714
1.0000010576743168
1.000001232975975
1.0000013429161752
1.0000013620902974
1.0000012835670935
1.0000011219837708
1.000000908672616
1.000000681226387
1.0000004724039395
1.0000003028248974
1.0000001793396076
1.000000098071974
1.0000000494994916
1.0000000230502655
1.0000000099001443
1.00000000392123
1.0000000014322454
1.000000000482534
1.0000000001500329
1.0000000000430918
1.0000000000114484
1.0000000000028186
1.0000000000006444
1.0000000000001368
1.0000000000000269
1.0000000000000049
1.0000000000000007
1.0
1.0
1.0
1.0
1.0
1.0
1.0
1.0
1.0
1.0
1.0
1.0
1.0
1.0
1.0
1.0
1.0
1.0
1.0
1.0
1.0
1.0
1.0
1.0
1.0
1.0
1.0
1.0
1.0
1.0
1.0
1.0
1.0
1.0
1.0
1.0
1.0
1.0
1.0
1.0
1.0
1.0
1.0
1.0
1.0
1.0
1.0
1.0
1.0
1.0
1.0
1.0
1.0
1.0
1.0
1.0
1.0
1.0
1.0
1.0
1.0
1.0
1.0
1.0
1.0
1.0
1.0
1.0000008784856447
1.0000010089165656
1.0000013893345097
1.0000020211629461
1.0000029281743539
1.0000041117402896
1.000005513879215
1.0000069947191002
1.0000083377833668
1.000009293151434
1.0000096505130953
1.000009313328731
1.0000083378723559
1.000006915964554
1.0000053097688824
1.0000037702607818
1.0000024741837363
1.0000014996210043
1.0000008390150854
1.0000004330808452
1.000000206146549
1.0000000904525355
1.0000000365745774
1.0000000136268232
1.0000000046784565
1.0000000014806905
1.0000000004323162
1.0000000001165823
1.0000000000290878
1.0000000000067304
1.0000000000014477
1.0000000000002904
1.0000000000000544
1.0000000000000093
1.0000000000000013
1.0000000000000002
1.0
1.0
1.0
1.0
1.0
1.0
1.0
1.0
1.0
1.0
1.0
1.0
1.0
1.0
1.0
1.0
1.0
1.0
1.0
1.0
1.0
1.0
1.0
1.0
1.0
1.0
1.0
1.0
1.0
1.0
1.0
1.0
1.0
1.0
1.0
1.0
1.0
1.0
1.0
1.0
1.0
1.0
1.0
1.0
1.0
1.0
1.0
1.0
1.0
1.0
1.0
1.0
1.0
1.0
1.0
1.0
1.0
1.0
1.0
1.0
1.0
1.0
1.0
1.0
1.0
1.0000052098025525
1.000006017540859
1.0000083797165416
1.0000123454713472
1.0000181506630605
1.0000259249370822
1.0000354355276342
1.0000458953058295
1.000055926650429
1.000063781521451
1.0000678111927293
1.0000670224049035
1.0000614610035683
1.0000522202926456
1.0000410658652041
1.0000298635912592
1.0000200671657806
1.0000124511617197
1.0000071291161363
1.0000037644912179
1.0000018322519573
1.000000821604647
1.000000339288388
1.0000001290003673
1.0000000451543987
1.0000000145540524
1.0000000043219872
1.000000001183678
1.0000000002994351
1.0000000000701172
1.0000000000152411
1.0000000000030855
1.000000000000584
1.0000000000001035
1.0000000000000173
1.0000000000000027
1.0000000000000002
1.0
1.0
1.0
1.0
1.0
1.0
1.0
1.0
1.0
1.0
1.0
1.0
1.0
1.0
1.0
1.0
1.0
1.0
1.0
1.0
1.0
1.0
1.0
1.0
1.0
1.0
1.0
1.0
1.0
1.0
1.0
1.0
1.0
1.0
1.0
1.0
1.0
1.0
1.0
1.0
1.0
1.0
1.0
1.0
1.0
1.0
1.0
1.0
1.0
1.0
1.0
1.0
1.0
1.0
1.0
1.0
1.0
1.0
1.0
1.0
1.0
1.0
1.0
1.0
1.0000308399583795
1.0000358118775368
1.0000503715186115
1.0000750448208522
1.0001118292297724
1.0001623079512396
1.000225940325702
1.0002985728371994
1.0003717455822734
1.0004336373839733
1.0004719168085605
1.0004776790119727
1.0004487498902173
1.0003906662711044
1.0003147969091983
1.0002345555380974
1.0001614613380314
1.0001026019891348
1.000060144618939
1.0000325017181264
1.0000161815463484
1.0000074181569936
1.0000031298508913
1.0000012148976225
1.0000004337640762
1.0000001424557943
1.0000000430504317
1.0000000119809533
1.000000003074673
1.000000000729036
1.0000000001601361
1.0000000000326943
1.000000000006229
1.0000000000011122
1.000000000000187
1.0000000000000293
1.000000000000004
1.0000000000000004
1.0
1.0
1.0
1.0
1.0
1.0
1.0
1.0
1.0
1.0
1.0
1.0
1.0
1.0
1.0
1.0
1.0
1.0
1.0
1.0
1.0
1.0
1.0
1.0
1.0
1.0
1.0
1.0
1.0
1.0
1.0
1.0
1.0
1.0
1.0
1.0
1.0
1.0
1.0
1.0
1.0
1.0
1.0
1.0
1.0
1.0
1.0
1.0
1.0
1.0
1.0
1.0
1.0
1.0
1.0
1.0
1.0
1.0
1.0
1.0
1.0
1.0
1.0
1.0001822823316464
1.000212701273155
1.0003017361723079
1.0004537049651665
1.0006839369614484
1.0010067331520454
1.0014243507378027
1.0019163637444155
1.0024327748144606
1.0028971093584569
1.0032227063697992
1.0033384298785077
1.0032134535973118
1.0028692858181112
1.0023730446463415
1.00181534832282
1.0012828316691729
1.0008364540865342
1.0005027744441088
1.0002783805683246
1.000141896466737
1.0000665483376356
1.0000287028452028
1.000011380260573
1.000004146547067
1.0000013882928216
1.000000427184244
1.000000120877117
1.0000000314882214
1.0000000075645066
1.0000000016799853
1.0000000003460316
1.000000000066363
1.0000000000119045
1.0000000000020073
1.0000000000003197
1.000000000000048
1.0000000000000064
1.0000000000000007
1.0
1.0
1.0
1.0
1.0
1.0
1.0
1.0
1.0
1.0
1.0
1.0
1.0
1.0
1.0
1.0
1.0
1.0
1.0
1.0
1.0
1.0
1.0
1.0
1.0
1.0
1.0
1.0
1.0
1.0
1.0
1.0
1.0
1.0
1.0
1.0
1.0
1.0
1.0
1.0
1.0
1.0
1.0
1.0
1.0
1.0
1.0
1.0
1.0
1.0
1.0
1.0
1.0
1.0
1.0
1.0
1.0
1.0
1.0
1.0
1.0
1.0
1.0010739662795145
1.0012580770502262
1.001794699274086
1.002711776277748
1.0041122162972491
1.0060950144671101
1.0086860880855582
1.0117729730455296
1.015064941340425
1.018114765091309
1.0204124097357168
1.0215206401120558
1.0212014954959159
1.019487306443106
1.016673664329343
1.0132401497370174
1.0097239624430356
1.0065836215465747
1.0040988300526408
1.002343019457715
1.0012290356629818
1.0005915877024518
1.0002613378726197
1.0001059615168593
1.000039431828722
1.0000134674856578
1.0000042219856742
1.0000012154067188
1.0000003215798585
1.0000000783196796
1.0000000175969124
1.0000000036584926
1.0000000007065397
1.0000000001273293
1.0000000000215237
1.0000000000034313
1.0000000000005183
1.0000000000000744
1.0000000000000102
1.000000000000001
1.0
1.0
1.0
1.0
1.0
1.0
1.0
1.0
1.0
1.0
1.0
1.0
1.0
1.0
1.0
1.0
1.0
1.0
1.0
1.0
1.0
1.0
1.0
1.0
1.0
1.0
1.0
1.0
1.0
1.0
1.0
1.0
1.0
1.0
1.0
1.0
1.0
1.0
1.0
1.0
1.0
1.0
1.0
1.0
1.0
1.0
1.0
1.0
1.0
1.0
1.0
1.0
1.0
1.0
1.0
1.0
1.0
1.0
1.0
1.0
1.0
1.0062266378027904
1.0072943716377027
1.0103548863082805
1.0154673281126847
1.0230654065347082
1.033436570659671
1.0463927617082658
1.0611062834887102
1.0761448941072274
1.0897194124999623
1.1000463170350288
1.1056937877381599
1.1058316926265241
1.1003596685157824
1.0899176794050809
1.0757955942373107
1.0597483675219987
1.0437101347165914
1.029425906815248
1.0180832729076168
1.0100861102450707
1.0050964007451935
1.0023372004336426
1.0009760524450106
1.0003722904237666
1.0001299396979715
1.000041544674517
1.0000121765620853
1.0000032745215635
1.0000008090241312
1.0000001840087664
1.0000000386373071
1.0000000075174984
1.0000000013614687
1.0000000002307172
1.0000000000367923
1.0000000000055533
1.0000000000007976
1.0000000000001095
1.000000000000014
1.0000000000000013
1.0
1.0
1.0
1.0
1.0
1.0
1.0
1.0
1.0
1.0
1.0
1.0
1.0
1.0
1.0
1.0
1.0
1.0
1.0
1.0
1.0
1.0
1.0
1.0
1.0
1.0
1.0
1.0
1.0
1.0
1.0
1.0
1.0
1.0
1.0
1.0
1.0
1.0
1.0
1.0
1.0
1.0
1.0
1.0
1.0
1.0
1.0
1.0
1.0
1.0
1.0
1.0
1.0
1.0
1.0
1.0
1.0
1.0
1.0
1.0
1.0332847171355337
1.038428631510731
1.0524735876574678
1.0741453552804772
1.1035157397265722
1.1398026548471365
1.180872297111184
1.2235309682695357
1.2640895851772496
1.2989744141178916
1.3251851475722267
1.340522295508261
1.343653726126491
1.3341272255771792
1.3123901575518104
1.279833919077225
1.238842517179397
1.1927608342568385
1.1456585739956768
1.101807834896802
1.0649020717180502
1.0371995403824892
1.018952462125062
1.0085478001609627
1.0034310764880516
1.0012389421207815
1.000406087266126
1.0001214501177564
1.0000332334694833
1.0000083362474947
1.0000019206948847
1.0000004075654223
1.0000000799326794
1.0000000145536911
1.0000000024730284
1.0000000003944876
1.0000000000594358
1.0000000000085096
1.0000000000011644
1.0000000000001528
1.0000000000000189
1.000000000000002
1.0000000000000002
1.0
1.0
1.0
1.0
1.0
1.0
1.0
1.0
1.0
1.0
1.0
1.0
1.0
1.0
1.0
1.0
1.0
1.0
1.0
1.0
1.0
1.0
1.0
1.0
1.0
1.0
1.0
1.0
1.0
1.0
1.0
1.0
1.0
1.0
1.0
1.0
1.0
1.0
1.0
1.0
1.0
1.0
1.0
1.0
1.0
1.0
1.0
1.0
1.0
1.0
1.0
1.0
1.0
1.0
1.0
1.0
1.0
1.0
1.139803005097681
1.1558695840428939
1.1970287100677894
1.2541994132004013
1.3233023553614678
1.3995796195169392
1.4774538687712282
1.5515452866123507
1.617402415713013
1.6717673776830222
1.7124460335751228
1.73797227114324
1.747280495021464
1.739544448266552
1.714205288568848
1.671145549409724
1.6110071593378812
1.5356388905469496
1.4485435050600435
1.3551144053377557
1.262388001783733
1.1780725902055686
1.108900821284454
1.0587709945736634
1.0274852571232405
1.0110566434172745
1.0038633493502027
1.0011979933551127
1.0003355027218543
1.0000856293905278
1.0000200074315808
1.0000042936351308
1.0000008493163233
1.0000001555348286
1.0000000265087161
1.000000004230151
1.0000000006360807
1.0000000000907114
1.0000000000123448
1.000000000001612
1.0000000000002025
1.0000000000000244
1.0000000000000027
1.0000000000000002
1.0
1.0
1.0
1.0
1.0
1.0
1.0
1.0
1.0
1.0
1.0
1.0
1.0
1.0
1.0
1.0
1.0
1.0
1.0
1.0
1.0
1.0
1.0
1.0
1.0
1.0
1.0
1.0
1.0
1.0
1.0
1.0
1.0
1.0
1.0
1.0
1.0
1.0
1.0
1.0
1.0
1.0
1.0
1.0
1.0
1.0
1.0
1.0
1.0
1.0
1.0
1.0
1.0
1.0
1.0
1.0
1.0
1.4118730194480658
1.4410554709867074
1.5123338915280569
1.6031607637181853
1.7024874437040638
1.8016750654263134
1.8941863738698352
1.9759029861874127
2.044883872434852
2.100668826557382
2.1434355173089212
2.1732942093054666
2.189839626668352
2.192006195009149
2.1781593058552966
2.1462684763633755
2.094189117329152
2.0201481979344362
1.9234280895642402
1.805242971788598
1.669682262932318
1.5243913818065054
1.3804393028644637
1.2506769700331306
1.1464279271710849
1.0737561562352287
1.0312458569879932
1.0110323243701365
1.0033071051501978
1.0008723609371435
1.000207711251941
1.0000451576929668
1.0000090169994047
1.000001661747977
1.000000284167694
1.0000000453685767
1.0000000068078143
1.0000000009667307
1.0000000001307736
1.0000000000169542
1.0000000000021172
1.0000000000002554
1.0000000000000295
1.000000000000003
1.0000000000000002
1.0
1.0
1.0
1.0
1.0
1.0
1.0
1.0
1.0
1.0
1.0
1.0
1.0
1.0
1.0
1.0
1.0
1.0
1.0
1.0
1.0
1.0
1.0
1.0
1.0
1.0
1.0
1.0
1.0
1.0
1.0
1.0
1.0
1.0
1.0
1.0
1.0
1.0
1.0
1.0
1.0
1.0
1.0
1.0
1.0
1.0
1.0
1.0
1.0
1.0
1.0
1.0
1.0
1.0
1.0
1.0
1.8647534188387094
1.894034304296109
1.9646475023937167
2.0508878592664743
2.138585353394009
2.2191097887364886
2.288543326322186
2.3462333982694883
2.3935227505444843
2.432576235213878
2.465359962409324
2.4929522622229365
2.515267760999187
2.531058860726282
2.5380913223251413
2.5333191270703765
2.513029536731988
2.4730101330216803
2.408841161154979
2.3164847568831615
2.1932748553474637
2.039361871330116
1.859443352631165
1.6641784841898724
1.4702109106877892
1.2974731900056788
1.1631513402816918
1.0749098869573386
1.0279230012826759
1.0084088405410587
1.002122474404379
1.0004727916284857
1.0000955938357554
1.0000177473638385
1.0000030464580258
1.0000004866985794
1.000000072873418
1.0000000103009192
1.0000000013844186
1.0000000001780733
1.000000000022049
1.000000000002641
1.0000000000003069
1.0000000000000346
1.0000000000000036
1.0000000000000004
1.0
1.0
1.0
1.0
1.0
1.0
1.0
1.0
1.0
1.0
1.0
1.0
1.0
1.0
1.0
1.0
1.0
1.0
1.0
1.0
1.0
1.0
1.0
1.0
1.0
1.0
1.0
1.0
1.0
1.0
1.0
1.0
1.0
1.0
1.0
1.0
1.0
1.0
1.0
1.0
1.0
1.0
1.0
1.0
1.0
1.0
1.0
1.0
1.0
1.0
1.0
1.0
1.0
1.0
1.0
2.389459369845668
2.397511253915996
2.421661738992642
2.4561365832185427
2.490635972673361
2.519296462237447
2.5411454661593136
2.5577897329380446
2.571999916901323
2.58675517438298
2.60440493453491
2.6260751611630924
2.6515812049112784
2.679511335703012
2.707416845340972
2.732087211504553
2.749661501511145
2.7555073002452968
2.744141699347221
2.7093110813444023
2.644304279395498
2.5426832485060293
2.3996685127140265
2.2143767458148664
1.9927393868506815
1.750013285354922
1.5107594824206232
1.3038771690013593
1.1520434213110173
1.061290910391593
1.019273409182304
1.004789564998083
1.0010058999159024
1.0001892545803963
1.0000326573652658
1.0000052226290295
1.0000007802449236
1.0000001097487825
1.0000000146462071
1.0000000018677144
1.000000000229036
1.0000000000271547
1.0000000000031268
1.0000000000003508
1.0000000000000382
1.000000000000004
1.0000000000000004
1.0
1.0
1.0
1.0
1.0
1.0
1.0
1.0
1.0
1.0
1.0
1.0
1.0
1.0
1.0
1.0
1.0
1.0
1.0
1.0
1.0
1.0
1.0
1.0
1.0
1.0
1.0
1.0
1.0
1.0
1.0
1.0
1.0
1.0
1.0
1.0
1.0
1.0
1.0
1.0
1.0
1.0
1.0
1.0
1.0
1.0
1.0
1.0
1.0
1.0
1.0
1.0
1.0
1.0
2.8433255511489515
2.815536799027069
2.763818202503504
2.7202648188679026
2.6828297431002635
2.6486842127884156
2.6180461384662204
2.5924770418825114
2.5741102722172315
2.565207431836031
2.567539491413754
2.5818184910054685
2.6076654567251696
2.6436268005929557
2.687278345236293
2.735615426565368
2.785222042600087
2.8320262331623285
2.8710839123081224
2.8964188259081824
2.900912244457343
2.8763209737958793
2.8135934836573937
2.7038000973452516
2.540118559238876
2.321269398323907
2.0561613899715323
1.7676805950247239
1.4915816704214162
1.2665358351244929
1.1166478272492073
1.0392054310508247
1.0099072901132908
1.0019910688498845
1.0003493566098838
1.0000560451747174
1.000008356293189
1.0000011692383055
1.00000015484405
1.000000019560827
1.0000000023735018
1.0000000002782625
1.0000000000316729
1.0000000000035139
1.0000000000003808
1.0000000000000404
1.000000000000004
1.0000000000000004
1.0
1.0
1.0
1.0
1.0
1.0
1.0
1.0
1.0
1.0
1.0
1.0
1.0
1.0
1.0
1.0
1.0
1.0
1.0
1.0
1.0
1.0
1.0
1.0
1.0
1.0
1.0
1.0
1.0
1.0
1.0
1.0
1.0
1.0
1.0
1.0
1.0
1.0
1.0
1.0
1.0
1.0
1.0
1.0
1.0
1.0
1.0
1.0
1.0
1.0
1.0
1.0
1.0
3.1452168087455714
3.0779217801118373
2.944388940421495
2.8203820585432315
2.7126748935091447
2.620554981549518
2.54384461232451
2.4825359170610044
2.437014518506761
2.4080927494647
2.396572810528222
2.4026900651447707
2.4259966499812227
2.4652200273297
2.5181931953004764