# vtk DataFile Version 3.0 
shock_diffraction_time_series_270_.vtk
ASCII
DATASET UNSTRUCTURED_GRID
POINTS         10201 double
0.0 0.0 0.0
0.01 0.0 0.0
0.02 0.0 0.0
0.03 0.0 0.0
0.04 0.0 0.0
0.05 0.0 0.0
0.06 0.0 0.0
0.07 0.0 0.0
0.08 0.0 0.0
0.09 0.0 0.0
0.1 0.0 0.0
0.11 0.0 0.0
0.12 0.0 0.0
0.13 0.0 0.0
0.14 0.0 0.0
0.15 0.0 0.0
0.16 0.0 0.0
0.17 0.0 0.0
0.18 0.0 0.0
0.19 0.0 0.0
0.2 0.0 0.0
0.21 0.0 0.0
0.22 0.0 0.0
0.23 0.0 0.0
0.24 0.0 0.0
0.25 0.0 0.0
0.26 0.0 0.0
0.27 0.0 0.0
0.28 0.0 0.0
0.29 0.0 0.0
0.3 0.0 0.0
0.31 0.0 0.0
0.32 0.0 0.0
0.33 0.0 0.0
0.34 0.0 0.0
0.35000000000000003 0.0 0.0
0.36 0.0 0.0
0.37 0.0 0.0
0.38 0.0 0.0
0.39 0.0 0.0
0.4 0.0 0.0
0.41000000000000003 0.0 0.0
0.42 0.0 0.0
0.43 0.0 0.0
0.44 0.0 0.0
0.45 0.0 0.0
0.46 0.0 0.0
0.47000000000000003 0.0 0.0
0.48 0.0 0.0
0.49 0.0 0.0
0.5 0.0 0.0
0.51 0.0 0.0
0.52 0.0 0.0
0.53 0.0 0.0
0.54 0.0 0.0
0.55 0.0 0.0
0.56 0.0 0.0
0.5700000000000001 0.0 0.0
0.58 0.0 0.0
0.59 0.0 0.0
0.6 0.0 0.0
0.61 0.0 0.0
0.62 0.0 0.0
0.63 0.0 0.0
0.64 0.0 0.0
0.65 0.0 0.0
0.66 0.0 0.0
0.67 0.0 0.0
0.68 0.0 0.0
0.6900000000000001 0.0 0.0
0.7000000000000001 0.0 0.0
0.71 0.0 0.0
0.72 0.0 0.0
0.73 0.0 0.0
0.74 0.0 0.0
0.75 0.0 0.0
0.76 0.0 0.0
0.77 0.0 0.0
0.78 0.0 0.0
0.79 0.0 0.0
0.8 0.0 0.0
0.81 0.0 0.0
0.8200000000000001 0.0 0.0
0.8300000000000001 0.0 0.0
0.84 0.0 0.0
0.85 0.0 0.0
0.86 0.0 0.0
0.87 0.0 0.0
0.88 0.0 0.0
0.89 0.0 0.0
0.9 0.0 0.0
0.91 0.0 0.0
0.92 0.0 0.0
0.93 0.0 0.0
0.9400000000000001 0.0 0.0
0.9500000000000001 0.0 0.0
0.96 0.0 0.0
0.97 0.0 0.0
0.98 0.0 0.0
0.99 0.0 0.0
1.0 0.0 0.0
0.0 0.01 0.0
0.01 0.01 0.0
0.02 0.01 0.0
0.03 0.01 0.0
0.04 0.01 0.0
0.05 0.01 0.0
0.06 0.01 0.0
0.07 0.01 0.0
0.08 0.01 0.0
0.09 0.01 0.0
0.1 0.01 0.0
0.11 0.01 0.0
0.12 0.01 0.0
0.13 0.01 0.0
0.14 0.01 0.0
0.15 0.01 0.0
0.16 0.01 0.0
0.17 0.01 0.0
0.18 0.01 0.0
0.19 0.01 0.0
0.2 0.01 0.0
0.21 0.01 0.0
0.22 0.01 0.0
0.23 0.01 0.0
0.24 0.01 0.0
0.25 0.01 0.0
0.26 0.01 0.0
0.27 0.01 0.0
0.28 0.01 0.0
0.29 0.01 0.0
0.3 0.01 0.0
0.31 0.01 0.0
0.32 0.01 0.0
0.33 0.01 0.0
0.34 0.01 0.0
0.35000000000000003 0.01 0.0
0.36 0.01 0.0
0.37 0.01 0.0
0.38 0.01 0.0
0.39 0.01 0.0
0.4 0.01 0.0
0.41000000000000003 0.01 0.0
0.42 0.01 0.0
0.43 0.01 0.0
0.44 0.01 0.0
0.45 0.01 0.0
0.46 0.01 0.0
0.47000000000000003 0.01 0.0
0.48 0.01 0.0
0.49 0.01 0.0
0.5 0.01 0.0
0.51 0.01 0.0
0.52 0.01 0.0
0.53 0.01 0.0
0.54 0.01 0.0
0.55 0.01 0.0
0.56 0.01 0.0
0.5700000000000001 0.01 0.0
0.58 0.01 0.0
0.59 0.01 0.0
0.6 0.01 0.0
0.61 0.01 0.0
0.62 0.01 0.0
0.63 0.01 0.0
0.64 0.01 0.0
0.65 0.01 0.0
0.66 0.01 0.0
0.67 0.01 0.0
0.68 0.01 0.0
0.6900000000000001 0.01 0.0
0.7000000000000001 0.01 0.0
0.71 0.01 0.0
0.72 0.01 0.0
0.73 0.01 0.0
0.74 0.01 0.0
0.75 0.01 0.0
0.76 0.01 0.0
0.77 0.01 0.0
0.78 0.01 0.0
0.79 0.01 0.0
0.8 0.01 0.0
0.81 0.01 0.0
0.8200000000000001 0.01 0.0
0.8300000000000001 0.01 0.0
0.84 0.01 0.0
0.85 0.01 0.0
0.86 0.01 0.0
0.87 0.01 0.0
0.88 0.01 0.0
0.89 0.01 0.0
0.9 0.01 0.0
0.91 0.01 0.0
0.92 0.01 0.0
0.93 0.01 0.0
0.9400000000000001 0.01 0.0
0.9500000000000001 0.01 0.0
0.96 0.01 0.0
0.97 0.01 0.0
0.98 0.01 0.0
0.99 0.01 0.0
1.0 0.01 0.0
0.0 0.02 0.0
0.01 0.02 0.0
0.02 0.02 0.0
0.03 0.02 0.0
0.04 0.02 0.0
0.05 0.02 0.0
0.06 0.02 0.0
0.07 0.02 0.0
0.08 0.02 0.0
0.09 0.02 0.0
0.1 0.02 0.0
0.11 0.02 0.0
0.12 0.02 0.0
0.13 0.02 0.0
0.14 0.02 0.0
0.15 0.02 0.0
0.16 0.02 0.0
0.17 0.02 0.0
0.18 0.02 0.0
0.19 0.02 0.0
0.2 0.02 0.0
0.21 0.02 0.0
0.22 0.02 0.0
0.23 0.02 0.0
0.24 0.02 0.0
0.25 0.02 0.0
0.26 0.02 0.0
0.27 0.02 0.0
0.28 0.02 0.0
0.29 0.02 0.0
0.3 0.02 0.0
0.31 0.02 0.0
0.32 0.02 0.0
0.33 0.02 0.0
0.34 0.02 0.0
0.35000000000000003 0.02 0.0
0.36 0.02 0.0
0.37 0.02 0.0
0.38 0.02 0.0
0.39 0.02 0.0
0.4 0.02 0.0
0.41000000000000003 0.02 0.0
0.42 0.02 0.0
0.43 0.02 0.0
0.44 0.02 0.0
0.45 0.02 0.0
0.46 0.02 0.0
0.47000000000000003 0.02 0.0
0.48 0.02 0.0
0.49 0.02 0.0
0.5 0.02 0.0
0.51 0.02 0.0
0.52 0.02 0.0
0.53 0.02 0.0
0.54 0.02 0.0
0.55 0.02 0.0
0.56 0.02 0.0
0.5700000000000001 0.02 0.0
0.58 0.02 0.0
0.59 0.02 0.0
0.6 0.02 0.0
0.61 0.02 0.0
0.62 0.02 0.0
0.63 0.02 0.0
0.64 0.02 0.0
0.65 0.02 0.0
0.66 0.02 0.0
0.67 0.02 0.0
0.68 0.02 0.0
0.6900000000000001 0.02 0.0
0.7000000000000001 0.02 0.0
0.71 0.02 0.0
0.72 0.02 0.0
0.73 0.02 0.0
0.74 0.02 0.0
0.75 0.02 0.0
0.76 0.02 0.0
0.77 0.02 0.0
0.78 0.02 0.0
0.79 0.02 0.0
0.8 0.02 0.0
0.81 0.02 0.0
0.8200000000000001 0.02 0.0
0.8300000000000001 0.02 0.0
0.84 0.02 0.0
0.85 0.02 0.0
0.86 0.02 0.0
0.87 0.02 0.0
0.88 0.02 0.0
0.89 0.02 0.0
0.9 0.02 0.0
0.91 0.02 0.0
0.92 0.02 0.0
0.93 0.02 0.0
0.9400000000000001 0.02 0.0
0.9500000000000001 0.02 0.0
0.96 0.02 0.0
0.97 0.02 0.0
0.98 0.02 0.0
0.99 0.02 0.0
1.0 0.02 0.0
0.0 0.03 0.0
0.01 0.03 0.0
0.02 0.03 0.0
0.03 0.03 0.0
0.04 0.03 0.0
0.05 0.03 0.0
0.06 0.03 0.0
0.07 0.03 0.0
0.08 0.03 0.0
0.09 0.03 0.0
0.1 0.03 0.0
0.11 0.03 0.0
0.12 0.03 0.0
0.13 0.03 0.0
0.14 0.03 0.0
0.15 0.03 0.0
0.16 0.03 0.0
0.17 0.03 0.0
0.18 0.03 0.0
0.19 0.03 0.0
0.2 0.03 0.0
0.21 0.03 0.0
0.22 0.03 0.0
0.23 0.03 0.0
0.24 0.03 0.0
0.25 0.03 0.0
0.26 0.03 0.0
0.27 0.03 0.0
0.28 0.03 0.0
0.29 0.03 0.0
0.3 0.03 0.0
0.31 0.03 0.0
0.32 0.03 0.0
0.33 0.03 0.0
0.34 0.03 0.0
0.35000000000000003 0.03 0.0
0.36 0.03 0.0
0.37 0.03 0.0
0.38 0.03 0.0
0.39 0.03 0.0
0.4 0.03 0.0
0.41000000000000003 0.03 0.0
0.42 0.03 0.0
0.43 0.03 0.0
0.44 0.03 0.0
0.45 0.03 0.0
0.46 0.03 0.0
0.47000000000000003 0.03 0.0
0.48 0.03 0.0
0.49 0.03 0.0
0.5 0.03 0.0
0.51 0.03 0.0
0.52 0.03 0.0
0.53 0.03 0.0
0.54 0.03 0.0
0.55 0.03 0.0
0.56 0.03 0.0
0.5700000000000001 0.03 0.0
0.58 0.03 0.0
0.59 0.03 0.0
0.6 0.03 0.0
0.61 0.03 0.0
0.62 0.03 0.0
0.63 0.03 0.0
0.64 0.03 0.0
0.65 0.03 0.0
0.66 0.03 0.0
0.67 0.03 0.0
0.68 0.03 0.0
0.6900000000000001 0.03 0.0
0.7000000000000001 0.03 0.0
0.71 0.03 0.0
0.72 0.03 0.0
0.73 0.03 0.0
0.74 0.03 0.0
0.75 0.03 0.0
0.76 0.03 0.0
0.77 0.03 0.0
0.78 0.03 0.0
0.79 0.03 0.0
0.8 0.03 0.0
0.81 0.03 0.0
0.8200000000000001 0.03 0.0
0.8300000000000001 0.03 0.0
0.84 0.03 0.0
0.85 0.03 0.0
0.86 0.03 0.0
0.87 0.03 0.0
0.88 0.03 0.0
0.89 0.03 0.0
0.9 0.03 0.0
0.91 0.03 0.0
0.92 0.03 0.0
0.93 0.03 0.0
0.9400000000000001 0.03 0.0
0.9500000000000001 0.03 0.0
0.96 0.03 0.0
0.97 0.03 0.0
0.98 0.03 0.0
0.99 0.03 0.0
1.0 0.03 0.0
0.0 0.04 0.0
0.01 0.04 0.0
0.02 0.04 0.0
0.03 0.04 0.0
0.04 0.04 0.0
0.05 0.04 0.0
0.06 0.04 0.0
0.07 0.04 0.0
0.08 0.04 0.0
0.09 0.04 0.0
0.1 0.04 0.0
0.11 0.04 0.0
0.12 0.04 0.0
0.13 0.04 0.0
0.14 0.04 0.0
0.15 0.04 0.0
0.16 0.04 0.0
0.17 0.04 0.0
0.18 0.04 0.0
0.19 0.04 0.0
0.2 0.04 0.0
0.21 0.04 0.0
0.22 0.04 0.0
0.23 0.04 0.0
0.24 0.04 0.0
0.25 0.04 0.0
0.26 0.04 0.0
0.27 0.04 0.0
0.28 0.04 0.0
0.29 0.04 0.0
0.3 0.04 0.0
0.31 0.04 0.0
0.32 0.04 0.0
0.33 0.04 0.0
0.34 0.04 0.0
0.35000000000000003 0.04 0.0
0.36 0.04 0.0
0.37 0.04 0.0
0.38 0.04 0.0
0.39 0.04 0.0
0.4 0.04 0.0
0.41000000000000003 0.04 0.0
0.42 0.04 0.0
0.43 0.04 0.0
0.44 0.04 0.0
0.45 0.04 0.0
0.46 0.04 0.0
0.47000000000000003 0.04 0.0
0.48 0.04 0.0
0.49 0.04 0.0
0.5 0.04 0.0
0.51 0.04 0.0
0.52 0.04 0.0
0.53 0.04 0.0
0.54 0.04 0.0
0.55 0.04 0.0
0.56 0.04 0.0
0.5700000000000001 0.04 0.0
0.58 0.04 0.0
0.59 0.04 0.0
0.6 0.04 0.0
0.61 0.04 0.0
0.62 0.04 0.0
0.63 0.04 0.0
0.64 0.04 0.0
0.65 0.04 0.0
0.66 0.04 0.0
0.67 0.04 0.0
0.68 0.04 0.0
0.6900000000000001 0.04 0.0
0.7000000000000001 0.04 0.0
0.71 0.04 0.0
0.72 0.04 0.0
0.73 0.04 0.0
0.74 0.04 0.0
0.75 0.04 0.0
0.76 0.04 0.0
0.77 0.04 0.0
0.78 0.04 0.0
0.79 0.04 0.0
0.8 0.04 0.0
0.81 0.04 0.0
0.8200000000000001 0.04 0.0
0.8300000000000001 0.04 0.0
0.84 0.04 0.0
0.85 0.04 0.0
0.86 0.04 0.0
0.87 0.04 0.0
0.88 0.04 0.0
0.89 0.04 0.0
0.9 0.04 0.0
0.91 0.04 0.0
0.92 0.04 0.0
0.93 0.04 0.0
0.9400000000000001 0.04 0.0
0.9500000000000001 0.04 0.0
0.96 0.04 0.0
0.97 0.04 0.0
0.98 0.04 0.0
0.99 0.04 0.0
1.0 0.04 0.0
0.0 0.05 0.0
0.01 0.05 0.0
0.02 0.05 0.0
0.03 0.05 0.0
0.04 0.05 0.0
0.05 0.05 0.0
0.06 0.05 0.0
0.07 0.05 0.0
0.08 0.05 0.0
0.09 0.05 0.0
0.1 0.05 0.0
0.11 0.05 0.0
0.12 0.05 0.0
0.13 0.05 0.0
0.14 0.05 0.0
0.15 0.05 0.0
0.16 0.05 0.0
0.17 0.05 0.0
0.18 0.05 0.0
0.19 0.05 0.0
0.2 0.05 0.0
0.21 0.05 0.0
0.22 0.05 0.0
0.23 0.05 0.0
0.24 0.05 0.0
0.25 0.05 0.0
0.26 0.05 0.0
0.27 0.05 0.0
0.28 0.05 0.0
0.29 0.05 0.0
0.3 0.05 0.0
0.31 0.05 0.0
0.32 0.05 0.0
0.33 0.05 0.0
0.34 0.05 0.0
0.35000000000000003 0.05 0.0
0.36 0.05 0.0
0.37 0.05 0.0
0.38 0.05 0.0
0.39 0.05 0.0
0.4 0.05 0.0
0.41000000000000003 0.05 0.0
0.42 0.05 0.0
0.43 0.05 0.0
0.44 0.05 0.0
0.45 0.05 0.0
0.46 0.05 0.0
0.47000000000000003 0.05 0.0
0.48 0.05 0.0
0.49 0.05 0.0
0.5 0.05 0.0
0.51 0.05 0.0
0.52 0.05 0.0
0.53 0.05 0.0
0.54 0.05 0.0
0.55 0.05 0.0
0.56 0.05 0.0
0.5700000000000001 0.05 0.0
0.58 0.05 0.0
0.59 0.05 0.0
0.6 0.05 0.0
0.61 0.05 0.0
0.62 0.05 0.0
0.63 0.05 0.0
0.64 0.05 0.0
0.65 0.05 0.0
0.66 0.05 0.0
0.67 0.05 0.0
0.68 0.05 0.0
0.6900000000000001 0.05 0.0
0.7000000000000001 0.05 0.0
0.71 0.05 0.0
0.72 0.05 0.0
0.73 0.05 0.0
0.74 0.05 0.0
0.75 0.05 0.0
0.76 0.05 0.0
0.77 0.05 0.0
0.78 0.05 0.0
0.79 0.05 0.0
0.8 0.05 0.0
0.81 0.05 0.0
0.8200000000000001 0.05 0.0
0.8300000000000001 0.05 0.0
0.84 0.05 0.0
0.85 0.05 0.0
0.86 0.05 0.0
0.87 0.05 0.0
0.88 0.05 0.0
0.89 0.05 0.0
0.9 0.05 0.0
0.91 0.05 0.0
0.92 0.05 0.0
0.93 0.05 0.0
0.9400000000000001 0.05 0.0
0.9500000000000001 0.05 0.0
0.96 0.05 0.0
0.97 0.05 0.0
0.98 0.05 0.0
0.99 0.05 0.0
1.0 0.05 0.0
0.0 0.06 0.0
0.01 0.06 0.0
0.02 0.06 0.0
0.03 0.06 0.0
0.04 0.06 0.0
0.05 0.06 0.0
0.06 0.06 0.0
0.07 0.06 0.0
0.08 0.06 0.0
0.09 0.06 0.0
0.1 0.06 0.0
0.11 0.06 0.0
0.12 0.06 0.0
0.13 0.06 0.0
0.14 0.06 0.0
0.15 0.06 0.0
0.16 0.06 0.0
0.17 0.06 0.0
0.18 0.06 0.0
0.19 0.06 0.0
0.2 0.06 0.0
0.21 0.06 0.0
0.22 0.06 0.0
0.23 0.06 0.0
0.24 0.06 0.0
0.25 0.06 0.0
0.26 0.06 0.0
0.27 0.06 0.0
0.28 0.06 0.0
0.29 0.06 0.0
0.3 0.06 0.0
0.31 0.06 0.0
0.32 0.06 0.0
0.33 0.06 0.0
0.34 0.06 0.0
0.35000000000000003 0.06 0.0
0.36 0.06 0.0
0.37 0.06 0.0
0.38 0.06 0.0
0.39 0.06 0.0
0.4 0.06 0.0
0.41000000000000003 0.06 0.0
0.42 0.06 0.0
0.43 0.06 0.0
0.44 0.06 0.0
0.45 0.06 0.0
0.46 0.06 0.0
[...]
POINT_DATA  10201
FIELD  FlowField  4
Density    1 10201  double
1.0000000135698321
1.00000001547679
1.0000000211708573
1.0000000310039292
1.0000000458865164
1.0000000668096258
1.0000000943481506
1.00000012809967
1.0000001661763205
1.0000002049801502
1.0000002395114267
1.0000002643074342
1.0000002748200871
1.0000002687654053
1.0000002468927045
1.0000002128232832
1.0000001720139031
1.0000001302728172
1.000000092392539
1.0000000613316318
1.0000000380878855
1.0000000221181415
1.0000000120056889
1.000000006088805
1.000000002884223
1.0000000012756876
1.0000000005267138
1.0000000002029816
1.0000000000730103
1.0000000000245144
1.0000000000076859
1.000000000002251
1.0000000000006164
1.0000000000001579
1.0000000000000377
1.000000000000008
1.0000000000000013
1.0
1.0
1.0
1.0
1.0
1.0
1.0
1.0
1.0
1.0
1.0
1.0
1.0
1.0
1.0
1.0
1.0
1.0
1.0
1.0
1.0
1.0
1.0
1.0
1.0
1.0
1.0
1.0
1.0
1.0
1.0
1.0
1.0
1.0
1.0
1.0
1.0
1.0
1.0
1.0
1.0
1.0
1.0
1.0
1.0
1.0
1.0
1.0
1.0
1.0
1.0
1.0
1.0
1.0
1.0
1.0
1.0
1.0
1.0
1.0
1.0
1.0
1.0
1.0
1.0000000472220147
1.0000000540116702
1.0000000743077262
1.0000001095646236
1.0000001635374747
1.0000002405813415
1.0000003438577125
1.0000004731833823
1.0000006228558225
1.0000007803068398
1.0000009266601517
1.0000010398436243
1.00000109983093
1.0000010943783937
1.0000010229965488
1.000000897391757
1.0000007381223006
1.0000005688652192
1.0000004105422686
1.000000277288272
1.000000175188779
1.0000001034837225
1.0000000571254648
1.0000000294571674
1.0000000141833942
1.0000000063744068
1.00000000267324
1.000000001045874
1.0000000003816978
1.0000000001299516
1.0000000000412828
1.0000000000122429
1.000000000003392
1.0000000000008789
1.0000000000002132
1.0000000000000482
1.00000000000001
1.0000000000000018
1.0000000000000002
1.0
1.0
1.0
1.0
1.0
1.0
1.0
1.0
1.0
1.0
1.0
1.0
1.0
1.0
1.0
1.0
1.0
1.0
1.0
1.0
1.0
1.0
1.0
1.0
1.0
1.0
1.0
1.0
1.0
1.0
1.0
1.0
1.0
1.0
1.0
1.0
1.0
1.0
1.0
1.0
1.0
1.0
1.0
1.0
1.0
1.0
1.0
1.0
1.0
1.0
1.0
1.0
1.0
1.0
1.0
1.0
1.0
1.0
1.0
1.0
1.0
1.0
1.0000002819974751
1.0000003234456596
1.0000004474085578
1.000000664034256
1.0000009997769488
1.0000014871061547
1.0000021536222048
1.0000030081232958
1.0000040248862112
1.000005131336585
1.0000062068287479
1.0000070988134273
1.000007656142405
1.0000077704199162
1.000007409955404
1.0000066316369678
1.000005565073286
1.0000043756545702
1.0000032214602825
1.0000022194312352
1.0000014301117777
1.0000008614128622
1.0000004847855126
1.000000254787094
1.0000001249964057
1.0000000572172976
1.0000000244290126
1.0000000097253277
1.0000000036094334
1.0000000012487886
1.0000000004028227
1.0000000001211928
1.0000000000340301
1.0000000000089269
1.0000000000021905
1.0000000000005034
1.0000000000001084
1.0000000000000218
1.000000000000004
1.0000000000000007
1.0
1.0
1.0
1.0
1.0
1.0
1.0
1.0
1.0
1.0
1.0
1.0
1.0
1.0
1.0
1.0
1.0
1.0
1.0
1.0
1.0
1.0
1.0
1.0
1.0
1.0
1.0
1.0
1.0
1.0
1.0
1.0
1.0
1.0
1.0
1.0
1.0
1.0
1.0
1.0
1.0
1.0
1.0
1.0
1.0
1.0
1.0
1.0
1.0
1.0
1.0
1.0
1.0
1.0
1.0
1.0
1.0
1.0
1.0
1.0
1.0
1.0000016854741078
1.0000019377767064
1.000002691911439
1.0000040161382988
1.000006092290326
1.0000091539419247
1.000013422184033
1.0000190181012372
1.0000258537162812
1.0000335309610944
1.0000413009768085
1.0000481364581084
1.000052933143287
1.0000547957212444
1.0000533085724412
1.0000486779921405
1.0000416806541836
1.0000334393247365
1.0000251187415954
1.0000176554668154
1.0000116049878112
1.0000071293764543
1.0000040913516886
1.0000021921231068
1.0000010960445673
1.0000005111521681
1.000000222250083
1.00000009006199
1.0000000340038158
1.0000000119601113
1.0000000039190002
1.0000000011966232
1.0000000003406542
1.0000000000904943
1.0000000000224605
1.0000000000052167
1.000000000001136
1.0000000000002323
1.0000000000000444
1.000000000000008
1.000000000000001
1.0
1.0
1.0
1.0
1.0
1.0
1.0
1.0
1.0
1.0
1.0
1.0
1.0
1.0
1.0
1.0
1.0
1.0
1.0
1.0
1.0
1.0
1.0
1.0
1.0
1.0
1.0
1.0
1.0
1.0
1.0
1.0
1.0
1.0
1.0
1.0
1.0
1.0
1.0
1.0
1.0
1.0
1.0
1.0
1.0
1.0
1.0
1.0
1.0
1.0
1.0
1.0
1.0
1.0
1.0
1.0
1.0
1.0
1.0
1.0
1.0000100835320738
1.0000116159348378
1.0000161875253175
1.0000242434337876
1.0000370084516965
1.000056115894156
1.0000832395264003
1.0001195600448507
1.0001650351602565
1.0002176305564898
1.0002728477737282
1.000323953367637
1.0003631282233338
1.0003833601805208
1.000380479049777
1.0003545180231819
1.0003097944298895
1.0002536639229378
1.0001944725245007
1.000139497377287
1.0000935620270264
1.0000586401887426
1.0000343244161236
1.0000187534779652
1.0000095586599032
1.00000454278941
1.0000020120797526
1.000000830181019
1.0000003189684916
1.000000114093862
1.000000037990785
1.0000000117774315
1.000000003400572
1.0000000009151648
1.000000000229815
1.0000000000539342
1.0000000000118532
1.0000000000024454
1.0000000000004743
1.0000000000000866
1.0000000000000147
1.000000000000002
1.0000000000000002
1.0
1.0
1.0
1.0
1.0
1.0
1.0
1.0
1.0
1.0
1.0
1.0
1.0
1.0
1.0
1.0
1.0
1.0
1.0
1.0
1.0
1.0
1.0
1.0
1.0
1.0
1.0
1.0
1.0
1.0
1.0
1.0
1.0
1.0
1.0
1.0
1.0
1.0
1.0
1.0
1.0
1.0
1.0
1.0
1.0
1.0
1.0
1.0
1.0
1.0
1.0
1.0
1.0
1.0
1.0
1.0
1.0
1.0
1.0000604011848342
1.000069692296903
1.0000973123875638
1.0001460760810037
1.0002240719287079
1.0003424082044003
1.0005131492726342
1.0007461388425456
1.0010442676108047
1.0013979884557809
1.0017811619723345
1.002151098983051
1.0024547662821157
1.0026406347981793
1.0026727676939093
1.0025418710503353
1.0022686862971635
1.0018982674864931
1.0014874925041586
1.0010905502860776
1.0007473987134434
1.0004784624860477
1.0002859248874036
1.0001594106474776
1.0000828734232488
1.0000401537046566
1.0000181231269027
1.0000076160960933
1.0000029787947908
1.0000010839606233
1.00000036691642
1.0000001155320397
1.0000000338478967
1.000000009232251
1.0000000023466664
1.0000000005566452
1.0000000001234572
1.000000000025663
1.0000000000050142
1.0000000000009235
1.0000000000001608
1.0000000000000262
1.0000000000000036
1.0000000000000004
1.0
1.0
1.0
1.0
1.0
1.0
1.0
1.0
1.0
1.0
1.0
1.0
1.0
1.0
1.0
1.0
1.0
1.0
1.0
1.0
1.0
1.0
1.0
1.0
1.0
1.0
1.0
1.0
1.0
1.0
1.0
1.0
1.0
1.0
1.0
1.0
1.0
1.0
1.0
1.0
1.0
1.0
1.0
1.0
1.0
1.0
1.0
1.0
1.0
1.0
1.0
1.0
1.0
1.0
1.0
1.0
1.0
1.0003621097668622
1.000418283625355
1.00058429206262
1.0008770868792847
1.0013483174013624
1.0020697909286882
1.0031211993394518
1.0045704993282363
1.0064437381572557
1.008690078646575
1.0111560083653275
1.0135864951368747
1.015662474615052
1.0170675435598926
1.017563804695607
1.017052432922902
1.0156000707581476
1.0134241643102486
1.0108424352757024
1.0082000396870352
1.0057940657465247
1.0038181158614279
1.0023436562097534
1.001339194294077
1.0007121743796437
1.0003524313528984
1.0001622760405562
1.0000695082159567
1.0000276884640882
1.0000102544999654
1.0000035300462513
1.0000011294227602
1.0000003358918128
1.0000000928960222
1.0000000239112505
1.0000000057353866
1.0000000012842367
1.0000000002690594
1.0000000000528937
1.000000000009789
1.0000000000017117
1.0000000000002836
1.0000000000000444
1.0000000000000062
1.0000000000000007
1.0
1.0
1.0
1.0
1.0
1.0
1.0
1.0
1.0
1.0
1.0
1.0
1.0
1.0
1.0
1.0
1.0
1.0
1.0
1.0
1.0
1.0
1.0
1.0
1.0
1.0
1.0
1.0
1.0
1.0
1.0
1.0
1.0
1.0
1.0
1.0
1.0
1.0
1.0
1.0
1.0
1.0
1.0
1.0
1.0
1.0
1.0
1.0
1.0
1.0
1.0
1.0
1.0
1.0
1.0
1.0
1.0021628695456966
1.0024979236040077
1.0034769215793453
1.0051857401782454
1.0079153891179784
1.0120471655261976
1.0179548725464092
1.0258731802389605
1.0357473827986086
1.047124960820693
1.0591455524917033
1.0706517656329362
1.0803862748369122
1.0872087247022408
1.0902806501127233
1.0891913334958256
1.0840147198687322
1.0752995168541282
1.0639995459826728
1.0513473090506604
1.0386713409685344
1.0271737269924306
1.0177132838361769
1.0106652547342774
1.0059205961914406
1.0030321262699684
1.0014352907082587
1.0006292262763923
1.0002558336255183
1.0000965409530707
1.0000338213067976
1.0000110010214418
1.0000033227153156
1.0000009322103272
1.0000002430995338
1.0000000589903506
1.0000000133414617
1.000000002818345
1.0000000005576295
1.0000000001036782
1.0000000000181823
1.0000000000030196
1.0000000000004767
1.0000000000000715
1.0000000000000102
1.000000000000001
1.0
1.0
1.0
1.0
1.0
1.0
1.0
1.0
1.0
1.0
1.0
1.0
1.0
1.0
1.0
1.0
1.0
1.0
1.0
1.0
1.0
1.0
1.0
1.0
1.0
1.0
1.0
1.0
1.0
1.0
1.0
1.0
1.0
1.0
1.0
1.0
1.0
1.0
1.0
1.0
1.0
1.0
1.0
1.0
1.0
1.0
1.0
1.0
1.0
1.0
1.0
1.0
1.0
1.0
1.0
1.0125218771494917
1.0143726527361765
1.0196243507555676
1.0283866648612037
1.0416228226463404
1.0602793956076433
1.0847876928148368
1.1147481438545208
1.14882320659602
1.1848790180302382
1.2203069590191693
1.2524109962396628
1.278748220542486
1.2973498676441515
1.30682967744253
1.306427293996216
1.2960257929255135
1.276165212412356
1.248058156249603
1.213592647313206
1.175275642782507
1.1360585983958829
1.099009761404256
1.0668488106602072
1.041431575043921
1.0233568157016815
1.011917330363898
1.0055104061979971
1.0023240145620376
1.000900470767683
1.0003221454333615
1.000106694166357
1.0000327553275816
1.0000093278561575
1.0000024657042765
1.0000006056036201
1.0000001384067339
1.0000000294934805
1.0000000058754144
1.0000000010977383
1.0000000001930833
1.000000000032106
1.0000000000050688
1.000000000000763
1.0000000000001097
1.0000000000000147
1.0000000000000018
1.0000000000000002
1.0
1.0
1.0
1.0
1.0
1.0
1.0
1.0
1.0
1.0
1.0
1.0
1.0
1.0
1.0
1.0
1.0
1.0
1.0
1.0
1.0
1.0
1.0
1.0
1.0
1.0
1.0
1.0
1.0
1.0
1.0
1.0
1.0
1.0
1.0
1.0
1.0
1.0
1.0
1.0
1.0
1.0
1.0
1.0
1.0
1.0
1.0
1.0
1.0
1.0
1.0
1.0
1.0
1.0628592791932583
1.0705301298383976
1.0911211705790367
1.1224628360899853
1.165038920691353
1.2185500206151332
1.2811621260818424
1.3497149212296795
1.4202725248695032
1.4887784449211587
1.5515888317171718
1.6057629313616215
1.6491190033780283
1.6801223793414697
1.697705996246437
1.7011282894250122
1.6899167628223575
1.6639007843164502
1.6233229115674046
1.569031506270011
1.5027338318762624
1.4272349348386473
1.3465500001098039
1.2657499397179104
1.1904209213228403
1.1257361368135705
1.0753283469900756
1.0403342090100218
1.0191073680544518
1.0080088860828496
1.003004698562894
1.0010248143750797
1.000321203294253
1.0000930098324927
1.0000249436563036
1.0000062047319853
1.0000014337208083
1.000000308330661
1.0000000618686133
1.0000000116196963
1.0000000020503197
1.0000000003413474
1.000000000053865
1.0000000000080942
1.000000000001163
1.00000000000016
1.0000000000000209
1.0000000000000024
1.0000000000000002
1.0
1.0
1.0
1.0
1.0
1.0
1.0
1.0
1.0
1.0
1.0
1.0
1.0
1.0
1.0
1.0
1.0
1.0
1.0
1.0
1.0
1.0
1.0
1.0
1.0
1.0
1.0
1.0
1.0
1.0
1.0
1.0
1.0
1.0
1.0
1.0
1.0
1.0
1.0
1.0
1.0
1.0
1.0
1.0
1.0
1.0
1.0
1.0
1.0
1.0
1.0
1.0
1.230907040657505
1.2502470165391688
1.2995090696482365
1.367869635816624
1.4513063415803944
1.545171918332423
1.643837367471737
1.7416954284867294
1.8340161230932417
1.9173914070411198
1.9897639443458393
2.0501417147067835
2.0981789487799976
2.133775900782764
2.156755046642321
2.1666677080180783
2.1627447541557285
2.1439498075548187
2.1090789971924533
2.056943881903592
1.9866894158866768
1.8982246695702478
1.7927464049886535
1.6732944197403465
1.5451766612752225
1.4159941965455025
1.2949103814111635
1.1909437579030304
1.1106650486435181
1.0562172732155024
1.0246378726656893
1.009303969053971
1.003082252830873
1.0009194840736668
1.000251297964896
1.0000634133395983
1.000014826765871
1.0000032197855504
1.0000006510605584
1.0000001229618443
1.0000000217717224
1.000000003629575
1.0000000005724095
1.000000000085819
1.0000000000122915
1.0000000000016889
1.0000000000002234
1.0000000000000284
1.0000000000000036
1.0000000000000004
1.0
1.0
1.0
1.0
1.0
1.0
1.0
1.0
1.0
1.0
1.0
1.0
1.0
1.0
1.0
1.0
1.0
1.0
1.0
1.0
1.0
1.0
1.0
1.0
1.0
1.0
1.0
1.0
1.0
1.0
1.0
1.0
1.0
1.0
1.0
1.0
1.0
1.0
1.0
1.0
1.0
1.0
1.0
1.0
1.0
1.0
1.0
1.0
1.0
1.0
1.0
1.5893033491927535
1.617758240681034
1.6880955359266625
1.7796216434575318
1.882129719863432
1.9872224150487923
2.0881548165113433
2.1802862299202164
2.261156799678494
2.3301404687787772
2.3878721316708136
2.4356236977090124
2.474735000177417
2.5061985160179576
2.530422861335458
2.547133272385733
2.555393365392815
2.5536896909620936
2.5399898752935837
2.511823356400263
2.4664281808160484
2.400966220398662
2.3128936400453823
2.20055091659054
2.064002043353496
1.9060578537553228
1.7332286355065398
1.556110847904833
1.3885530217520807
1.2449367671072027
1.1358913332085454
1.0645803690772624
1.025744351431174
1.00861003463829
1.0024865411755826
1.000644079488287
1.0001529259140336
1.00003357663184
1.0000068462417084
1.000001300812535
1.0000002311868306
1.0000000385997572
1.00000000608389
1.0000000009098768
1.0000000001297888
1.000000000017746
1.0000000000023364
1.0000000000002975
1.0000000000000364
1.000000000000004
1.0000000000000004
1.0
1.0
1.0
1.0
1.0
1.0
1.0
1.0
1.0
1.0
1.0
1.0
1.0
1.0
1.0
1.0
1.0
1.0
1.0
1.0
1.0
1.0
1.0
1.0
1.0
1.0
1.0
1.0
1.0
1.0
1.0
1.0
1.0
1.0
1.0
1.0
1.0
1.0
1.0
1.0
1.0
1.0
1.0
1.0
1.0
1.0
1.0
1.0
1.0
1.0
2.101269472790573
2.1239677726839528
2.181101534754851
2.2548350538906536
2.333067656099559
2.4074370814215427
2.4732460905329794
2.5286210952554073
2.5738007110393566
2.6103675328352174
2.640532959331582
2.666606565341974
2.690551984947751
2.7136422585696938
2.7363543409139206
2.758377281555646
2.7786782527342475
2.7956036308703354
2.806965103074684
2.8100815162133657
2.801754478521304
2.778249435761906
2.735360604067924
2.6686007632944166
2.5736103570968463
2.4469084835089223
2.287101378334887
2.096549769107556
1.8831427328866712
1.661283106831557
1.4508189066396284
1.272752996127093
1.1420520671397596
1.0615989823015695
1.0217155200612231
1.0062763955928917
1.0015589884233829
1.0003489312802305
1.0000719045872688
1.000013755675889
1.0000024548813875
1.0000004105802307
1.0000000646777063
1.0000000096476942
1.0000000013701884
1.0000000001862681
1.0000000000243587
1.0000000000030775
1.0000000000003766
1.0000000000000444
1.0000000000000049
1.0000000000000004
1.0
1.0
1.0
1.0
1.0
1.0
1.0
1.0
1.0
1.0
1.0
1.0
1.0
1.0
1.0
1.0
1.0
1.0
1.0
1.0
1.0
1.0
1.0
1.0
1.0
1.0
1.0
1.0
1.0
1.0
1.0
1.0
1.0
1.0
1.0
1.0
1.0
1.0
1.0
1.0
1.0
1.0
1.0
1.0
1.0
1.0
1.0
1.0
1.0
2.632302220845438
2.633058164058246
2.641882724400692
2.6610845014916458
2.6825101010409256
2.7005496221759726
2.7130745474423548
2.720119469456331
2.723115913175527
2.724208440936967
2.7257067197752187
2.7298132235053236
2.7383281427794732
2.7523208191603032
2.772098871740638
2.797261360578573
2.826739726957961
2.858887266191062
2.891651543052763
2.922626618934083
2.9489331726721195
2.9671226753975843
2.9731020645237827
2.9620734373743276
2.9285321845038963
2.8664072964912526
2.7694920964567613
2.63238304294178
2.452162545841262
2.2309355078760853
1.9787509663540785
1.7153426189575653
1.4683568498248403
1.2661607617623651
1.1264511144800822
1.0482900699041071
1.014516023750089
1.0035394916915346
1.0007509530521344
1.0001452768033936
1.0000260634286677
1.0000043681873432
1.0000006877781495
1.0000001023126683
1.0000000144630061
1.000000001953925
1.000000000253629
1.000000000031785
1.0000000000038618
1.0000000000004563
1.0000000000000524
1.0000000000000056
1.0000000000000004
1.0
1.0
1.0
1.0
1.0
1.0
1.0
1.0
1.0
1.0
1.0
1.0
1.0
1.0
1.0
1.0
1.0
1.0
1.0
1.0
1.0
1.0
1.0
1.0
1.0
1.0
1.0
1.0
1.0
1.0
1.0
1.0
1.0
1.0
1.0
1.0
1.0
1.0
1.0
1.0
1.0
1.0
1.0
1.0
1.0
1.0
1.0
1.0
3.06259275394977
3.0334187880789676
2.9775365039293744
2.9272010950310605
2.8813750231654227
2.8379710733532866
2.7965990730812544
2.757758928910233
2.7226235561255514
2.6927108225212395
2.669583467597246
2.6547929342856333
2.649660887634097
2.6549277747624065
2.6707403606843814
2.6966858779109377
2.7317581018661317
2.7744076590106403
2.8227821875957284
2.874816881173346
2.928092047932427
2.9797341852676347
3.0263199820095035
3.0637588820369244
3.087165525769234
3.0907394497245497
3.0676948296826616
3.010344671265094
2.910563021021426
2.760994908449611
2.5574396440868092
2.3026296119159477
2.010659920666165
1.709284342558762
1.4360578753719953
1.2258075800838766
1.0940852637005454
1.0302294364744287
1.0074637784079636
1.001518654991117
1.000276237759294
1.0000464724721716
1.000007315940136
1.0000010852318422
1.000000152646246
1.0000000204841077
1.0000000026376628
1.0000000003276104
1.0000000000394287
1.0000000000046163
1.0000000000005276
1.0000000000000588
1.0000000000000062
1.0000000000000004
1.0
1.0
1.0
1.0
1.0
1.0
1.0
1.0
1.0
1.0
1.0
1.0
1.0
1.0
1.0
1.0
1.0
1.0
1.0
1.0
1.0
1.0
1.0
1.0
1.0
1.0
1.0
1.0
1.0
1.0
1.0
1.0
1.0
1.0
1.0
1.0
1.0
1.0
1.0
1.0
1.0
1.0
1.0
1.0
1.0
1.0
1.0
3.3432239719879533
3.283784225073216
3.163394428314588
3.0457811302114415
2.9372570030224696
2.8388229451868203
2.75102274272093
2.6739554327689126
2.6078216751250185
2.5530311705208044
2.5101337390313714
2.4798608560496964
2.462962059422621
2.4598746601422623
2.4706728713641484
2.495048067430063
2.532192365384219
2.5807691653892433
2.639135224847519
2.705506399793488
2.7778682356481967
2.8538738268249424
2.9307552258027525
3.0052125068827795
3.073288992409405
3.1302298196528513
3.1703138795678756
3.186664579040532
3.1710942425715434
3.1141336563870565
3.005589838459114
2.8362364349376885
2.601342136695709
2.3063112886656922
1.9728708247361477
1.6407279136409658
1.3584369558897427
1.1622104610037869
1.0562787101742823
1.0144558994055326
1.0028726091367737
1.0004930294543042
1.000077814878625
1.0000115134331868
1.0000016109271113
1.0000002146144114
1.000000027395734
1.0000000033698329
1.0000000004014018
1.0000000000464964
1.000000000005256
1.0000000000005813
1.000000000000063
1.0000000000000064
1.0000000000000004
1.0
1.0
1.0
1.0
1.0
1.0
1.0
1.0
1.0
1.0
1.0
1.0
1.0
1.0
1.0
1.0
1.0
1.0
1.0
1.0
1.0
1.0
1.0
1.0
1.0
1.0
1.0
1.0
1.0
1.0
1.0
1.0
1.0
1.0
1.0
1.0
1.0
1.0
1.0
1.0
1.0
1.0
1.0
1.0
1.0
1.0
3.4803019466497975
3.3935595962271434
3.2158156646503766
3.040171107622304
2.8792049744012953
2.7358809134756497
2.6110533186716647
2.504075453508633
2.4139932105643473
2.340040593503904
2.2817616334541393
2.239053724913559
2.212064336998094
2.2009588492701373
2.2058007461669833
2.226461978465756
2.2624540294480338
2.3127963678569814
2.376103605599708
2.450820138078434
2.5352766168782424
2.62758983083941
2.725559772721872
2.8265544570738266
2.9273967024151477
3.02425840527749
3.1125408555461185
3.1867103608850638
3.2400697557478946
3.26447405254429
3.2500694560606114
3.185294380679246
3.0577064644886103
2.8566179386158383
2.5785800675559187
2.2357230552461935
1.8631645622336641
1.5165156931723767
1.2516840822691058
1.0940789501790438
1.0255243793353743
1.0050559690567555
1.0008237062209249
1.0001221028953697
1.0000169985108402
1.0000022470917385
1.0000002841461013
1.000000034585117
1.0000000040738073
1.0000000004664895
1.0000000000521243
1.0000000000057
1.0000000000006115
1.0000000000000644
1.0000000000000064
1.0000000000000004
1.0
1.0
1.0
1.0
1.0
1.0
1.0
1.0
1.0
1.0
1.0
1.0
1.0
1.0
1.0
1.0
1.0
1.0
1.0
1.0
1.0
1.0
1.0
1.0
1.0
1.0
1.0
1.0
1.0
1.0
1.0
1.0
1.0
1.0
1.0
1.0
1.0
1.0
1.0
1.0
1.0
1.0
1.0
1.0
1.0
3.5038789918163946
3.39300385069338
3.165241505665095
2.9409186231133417
2.737961250702506
2.559841670837382
2.4070143322195174
2.2778455635965336
2.170215468517377
2.082263682331019
2.0126192946974477
1.9604138242120075
1.925197180130482
1.9068211039720526
1.9053096216527954
1.920702898881299
1.9528633749904367
2.001274733099248
2.064940682202844
2.142550327482309
2.232727262167722
2.3340416710781495
2.444864021046145
2.5632057933978754
2.6865772040567775
2.8118868750301487
2.9353702780800663
3.0525092819021884
3.1579053503764434
3.2450688938287273
3.3060954428822824
3.3312441202862226
3.3085570405256073
3.223941411788259
3.0626901737922774
2.8139970868585857
2.4797130515610357
2.085881221524495
1.6881733691259286
1.3574762141006986
1.1428477214577204
1.041048297122753
1.0082402927975436
1.0012845675399604
1.0001791820892905
1.0000235095241072
1.0000029426180839
1.000000354068518
1.0000000412011676
1.0000000046595017
1.0000000005141874
1.000000000055548
1.00000000000589
1.0000000000006144
1.0000000000000628
1.0000000000000058
1.0000000000000004
1.0
1.0
1.0
1.0
1.0
1.0
1.0
1.0
1.0
1.0
1.0
1.0
1.0
1.0
1.0
1.0
1.0
1.0
1.0
1.0
1.0
1.0
1.0
1.0
1.0
1.0
1.0
1.0
1.0
1.0
1.0
1.0
1.0
1.0
1.0
1.0
1.0
1.0
1.0
1.0
1.0
1.0
1.0
1.0