# vtk DataFile Version 3.0 
shock_diffraction_time_series_368_.vtk
ASCII
DATASET UNSTRUCTURED_GRID
POINTS         10201 double
0.0 0.0 0.0
0.01 0.0 0.0
0.02 0.0 0.0
0.03 0.0 0.0
0.04 0.0 0.0
0.05 0.0 0.0
0.06 0.0 0.0
0.07 0.0 0.0
0.08 0.0 0.0
0.09 0.0 0.0
0.1 0.0 0.0
0.11 0.0 0.0
0.12 0.0 0.0
0.13 0.0 0.0
0.14 0.0 0.0
0.15 0.0 0.0
0.16 0.0 0.0
0.17 0.0 0.0
0.18 0.0 0.0
0.19 0.0 0.0
0.2 0.0 0.0
0.21 0.0 0.0
0.22 0.0 0.0
0.23 0.0 0.0
0.24 0.0 0.0
0.25 0.0 0.0
0.26 0.0 0.0
0.27 0.0 0.0
0.28 0.0 0.0
0.29 0.0 0.0
0.3 0.0 0.0
0.31 0.0 0.0
0.32 0.0 0.0
0.33 0.0 0.0
0.34 0.0 0.0
0.35000000000000003 0.0 0.0
0.36 0.0 0.0
0.37 0.0 0.0
0.38 0.0 0.0
0.39 0.0 0.0
0.4 0.0 0.0
0.41000000000000003 0.0 0.0
0.42 0.0 0.0
0.43 0.0 0.0
0.44 0.0 0.0
0.45 0.0 0.0
0.46 0.0 0.0
0.47000000000000003 0.0 0.0
0.48 0.0 0.0
0.49 0.0 0.0
0.5 0.0 0.0
0.51 0.0 0.0
0.52 0.0 0.0
0.53 0.0 0.0
0.54 0.0 0.0
0.55 0.0 0.0
0.56 0.0 0.0
0.5700000000000001 0.0 0.0
0.58 0.0 0.0
0.59 0.0 0.0
0.6 0.0 0.0
0.61 0.0 0.0
0.62 0.0 0.0
0.63 0.0 0.0
0.64 0.0 0.0
0.65 0.0 0.0
0.66 0.0 0.0
0.67 0.0 0.0
0.68 0.0 0.0
0.6900000000000001 0.0 0.0
0.7000000000000001 0.0 0.0
0.71 0.0 0.0
0.72 0.0 0.0
0.73 0.0 0.0
0.74 0.0 0.0
0.75 0.0 0.0
0.76 0.0 0.0
0.77 0.0 0.0
0.78 0.0 0.0
0.79 0.0 0.0
0.8 0.0 0.0
0.81 0.0 0.0
0.8200000000000001 0.0 0.0
0.8300000000000001 0.0 0.0
0.84 0.0 0.0
0.85 0.0 0.0
0.86 0.0 0.0
0.87 0.0 0.0
0.88 0.0 0.0
0.89 0.0 0.0
0.9 0.0 0.0
0.91 0.0 0.0
0.92 0.0 0.0
0.93 0.0 0.0
0.9400000000000001 0.0 0.0
0.9500000000000001 0.0 0.0
0.96 0.0 0.0
0.97 0.0 0.0
0.98 0.0 0.0
0.99 0.0 0.0
1.0 0.0 0.0
0.0 0.01 0.0
0.01 0.01 0.0
0.02 0.01 0.0
0.03 0.01 0.0
0.04 0.01 0.0
0.05 0.01 0.0
0.06 0.01 0.0
0.07 0.01 0.0
0.08 0.01 0.0
0.09 0.01 0.0
0.1 0.01 0.0
0.11 0.01 0.0
0.12 0.01 0.0
0.13 0.01 0.0
0.14 0.01 0.0
0.15 0.01 0.0
0.16 0.01 0.0
0.17 0.01 0.0
0.18 0.01 0.0
0.19 0.01 0.0
0.2 0.01 0.0
0.21 0.01 0.0
0.22 0.01 0.0
0.23 0.01 0.0
0.24 0.01 0.0
0.25 0.01 0.0
0.26 0.01 0.0
0.27 0.01 0.0
0.28 0.01 0.0
0.29 0.01 0.0
0.3 0.01 0.0
0.31 0.01 0.0
0.32 0.01 0.0
0.33 0.01 0.0
0.34 0.01 0.0
0.35000000000000003 0.01 0.0
0.36 0.01 0.0
0.37 0.01 0.0
0.38 0.01 0.0
0.39 0.01 0.0
0.4 0.01 0.0
0.41000000000000003 0.01 0.0
0.42 0.01 0.0
0.43 0.01 0.0
0.44 0.01 0.0
0.45 0.01 0.0
0.46 0.01 0.0
0.47000000000000003 0.01 0.0
0.48 0.01 0.0
0.49 0.01 0.0
0.5 0.01 0.0
0.51 0.01 0.0
0.52 0.01 0.0
0.53 0.01 0.0
0.54 0.01 0.0
0.55 0.01 0.0
0.56 0.01 0.0
0.5700000000000001 0.01 0.0
0.58 0.01 0.0
0.59 0.01 0.0
0.6 0.01 0.0
0.61 0.01 0.0
0.62 0.01 0.0
0.63 0.01 0.0
0.64 0.01 0.0
0.65 0.01 0.0
0.66 0.01 0.0
0.67 0.01 0.0
0.68 0.01 0.0
0.6900000000000001 0.01 0.0
0.7000000000000001 0.01 0.0
0.71 0.01 0.0
0.72 0.01 0.0
0.73 0.01 0.0
0.74 0.01 0.0
0.75 0.01 0.0
0.76 0.01 0.0
0.77 0.01 0.0
0.78 0.01 0.0
0.79 0.01 0.0
0.8 0.01 0.0
0.81 0.01 0.0
0.8200000000000001 0.01 0.0
0.8300000000000001 0.01 0.0
0.84 0.01 0.0
0.85 0.01 0.0
0.86 0.01 0.0
0.87 0.01 0.0
0.88 0.01 0.0
0.89 0.01 0.0
0.9 0.01 0.0
0.91 0.01 0.0
0.92 0.01 0.0
0.93 0.01 0.0
0.9400000000000001 0.01 0.0
0.9500000000000001 0.01 0.0
0.96 0.01 0.0
0.97 0.01 0.0
0.98 0.01 0.0
0.99 0.01 0.0
1.0 0.01 0.0
0.0 0.02 0.0
0.01 0.02 0.0
0.02 0.02 0.0
0.03 0.02 0.0
0.04 0.02 0.0
0.05 0.02 0.0
0.06 0.02 0.0
0.07 0.02 0.0
0.08 0.02 0.0
0.09 0.02 0.0
0.1 0.02 0.0
0.11 0.02 0.0
0.12 0.02 0.0
0.13 0.02 0.0
0.14 0.02 0.0
0.15 0.02 0.0
0.16 0.02 0.0
0.17 0.02 0.0
0.18 0.02 0.0
0.19 0.02 0.0
0.2 0.02 0.0
0.21 0.02 0.0
0.22 0.02 0.0
0.23 0.02 0.0
0.24 0.02 0.0
0.25 0.02 0.0
0.26 0.02 0.0
0.27 0.02 0.0
0.28 0.02 0.0
0.29 0.02 0.0
0.3 0.02 0.0
0.31 0.02 0.0
0.32 0.02 0.0
0.33 0.02 0.0
0.34 0.02 0.0
0.35000000000000003 0.02 0.0
0.36 0.02 0.0
0.37 0.02 0.0
0.38 0.02 0.0
0.39 0.02 0.0
0.4 0.02 0.0
0.41000000000000003 0.02 0.0
0.42 0.02 0.0
0.43 0.02 0.0
0.44 0.02 0.0
0.45 0.02 0.0
0.46 0.02 0.0
0.47000000000000003 0.02 0.0
0.48 0.02 0.0
0.49 0.02 0.0
0.5 0.02 0.0
0.51 0.02 0.0
0.52 0.02 0.0
0.53 0.02 0.0
0.54 0.02 0.0
0.55 0.02 0.0
0.56 0.02 0.0
0.5700000000000001 0.02 0.0
0.58 0.02 0.0
0.59 0.02 0.0
0.6 0.02 0.0
0.61 0.02 0.0
0.62 0.02 0.0
0.63 0.02 0.0
0.64 0.02 0.0
0.65 0.02 0.0
0.66 0.02 0.0
0.67 0.02 0.0
0.68 0.02 0.0
0.6900000000000001 0.02 0.0
0.7000000000000001 0.02 0.0
0.71 0.02 0.0
0.72 0.02 0.0
0.73 0.02 0.0
0.74 0.02 0.0
0.75 0.02 0.0
0.76 0.02 0.0
0.77 0.02 0.0
0.78 0.02 0.0
0.79 0.02 0.0
0.8 0.02 0.0
0.81 0.02 0.0
0.8200000000000001 0.02 0.0
0.8300000000000001 0.02 0.0
0.84 0.02 0.0
0.85 0.02 0.0
0.86 0.02 0.0
0.87 0.02 0.0
0.88 0.02 0.0
0.89 0.02 0.0
0.9 0.02 0.0
0.91 0.02 0.0
0.92 0.02 0.0
0.93 0.02 0.0
0.9400000000000001 0.02 0.0
0.9500000000000001 0.02 0.0
0.96 0.02 0.0
0.97 0.02 0.0
0.98 0.02 0.0
0.99 0.02 0.0
1.0 0.02 0.0
0.0 0.03 0.0
0.01 0.03 0.0
0.02 0.03 0.0
0.03 0.03 0.0
0.04 0.03 0.0
0.05 0.03 0.0
0.06 0.03 0.0
0.07 0.03 0.0
0.08 0.03 0.0
0.09 0.03 0.0
0.1 0.03 0.0
0.11 0.03 0.0
0.12 0.03 0.0
0.13 0.03 0.0
0.14 0.03 0.0
0.15 0.03 0.0
0.16 0.03 0.0
0.17 0.03 0.0
0.18 0.03 0.0
0.19 0.03 0.0
0.2 0.03 0.0
0.21 0.03 0.0
0.22 0.03 0.0
0.23 0.03 0.0
0.24 0.03 0.0
0.25 0.03 0.0
0.26 0.03 0.0
0.27 0.03 0.0
0.28 0.03 0.0
0.29 0.03 0.0
0.3 0.03 0.0
0.31 0.03 0.0
0.32 0.03 0.0
0.33 0.03 0.0
0.34 0.03 0.0
0.35000000000000003 0.03 0.0
0.36 0.03 0.0
0.37 0.03 0.0
0.38 0.03 0.0
0.39 0.03 0.0
0.4 0.03 0.0
0.41000000000000003 0.03 0.0
0.42 0.03 0.0
0.43 0.03 0.0
0.44 0.03 0.0
0.45 0.03 0.0
0.46 0.03 0.0
0.47000000000000003 0.03 0.0
0.48 0.03 0.0
0.49 0.03 0.0
0.5 0.03 0.0
0.51 0.03 0.0
0.52 0.03 0.0
0.53 0.03 0.0
0.54 0.03 0.0
0.55 0.03 0.0
0.56 0.03 0.0
0.5700000000000001 0.03 0.0
0.58 0.03 0.0
0.59 0.03 0.0
0.6 0.03 0.0
0.61 0.03 0.0
0.62 0.03 0.0
0.63 0.03 0.0
0.64 0.03 0.0
0.65 0.03 0.0
0.66 0.03 0.0
0.67 0.03 0.0
0.68 0.03 0.0
0.6900000000000001 0.03 0.0
0.7000000000000001 0.03 0.0
0.71 0.03 0.0
0.72 0.03 0.0
0.73 0.03 0.0
0.74 0.03 0.0
0.75 0.03 0.0
0.76 0.03 0.0
0.77 0.03 0.0
0.78 0.03 0.0
0.79 0.03 0.0
0.8 0.03 0.0
0.81 0.03 0.0
0.8200000000000001 0.03 0.0
0.8300000000000001 0.03 0.0
0.84 0.03 0.0
0.85 0.03 0.0
0.86 0.03 0.0
0.87 0.03 0.0
0.88 0.03 0.0
0.89 0.03 0.0
0.9 0.03 0.0
0.91 0.03 0.0
0.92 0.03 0.0
0.93 0.03 0.0
0.9400000000000001 0.03 0.0
0.9500000000000001 0.03 0.0
0.96 0.03 0.0
0.97 0.03 0.0
0.98 0.03 0.0
0.99 0.03 0.0
1.0 0.03 0.0
0.0 0.04 0.0
0.01 0.04 0.0
0.02 0.04 0.0
0.03 0.04 0.0
0.04 0.04 0.0
0.05 0.04 0.0
0.06 0.04 0.0
0.07 0.04 0.0
0.08 0.04 0.0
0.09 0.04 0.0
0.1 0.04 0.0
0.11 0.04 0.0
0.12 0.04 0.0
0.13 0.04 0.0
0.14 0.04 0.0
0.15 0.04 0.0
0.16 0.04 0.0
0.17 0.04 0.0
0.18 0.04 0.0
0.19 0.04 0.0
0.2 0.04 0.0
0.21 0.04 0.0
0.22 0.04 0.0
0.23 0.04 0.0
0.24 0.04 0.0
0.25 0.04 0.0
0.26 0.04 0.0
0.27 0.04 0.0
0.28 0.04 0.0
0.29 0.04 0.0
0.3 0.04 0.0
0.31 0.04 0.0
0.32 0.04 0.0
0.33 0.04 0.0
0.34 0.04 0.0
0.35000000000000003 0.04 0.0
0.36 0.04 0.0
0.37 0.04 0.0
0.38 0.04 0.0
0.39 0.04 0.0
0.4 0.04 0.0
0.41000000000000003 0.04 0.0
0.42 0.04 0.0
0.43 0.04 0.0
0.44 0.04 0.0
0.45 0.04 0.0
0.46 0.04 0.0
0.47000000000000003 0.04 0.0
0.48 0.04 0.0
0.49 0.04 0.0
0.5 0.04 0.0
0.51 0.04 0.0
0.52 0.04 0.0
0.53 0.04 0.0
0.54 0.04 0.0
0.55 0.04 0.0
0.56 0.04 0.0
0.5700000000000001 0.04 0.0
0.58 0.04 0.0
0.59 0.04 0.0
0.6 0.04 0.0
0.61 0.04 0.0
0.62 0.04 0.0
0.63 0.04 0.0
0.64 0.04 0.0
0.65 0.04 0.0
0.66 0.04 0.0
0.67 0.04 0.0
0.68 0.04 0.0
0.6900000000000001 0.04 0.0
0.7000000000000001 0.04 0.0
0.71 0.04 0.0
0.72 0.04 0.0
0.73 0.04 0.0
0.74 0.04 0.0
0.75 0.04 0.0
0.76 0.04 0.0
0.77 0.04 0.0
0.78 0.04 0.0
0.79 0.04 0.0
0.8 0.04 0.0
0.81 0.04 0.0
0.8200000000000001 0.04 0.0
0.8300000000000001 0.04 0.0
0.84 0.04 0.0
0.85 0.04 0.0
0.86 0.04 0.0
0.87 0.04 0.0
0.88 0.04 0.0
0.89 0.04 0.0
0.9 0.04 0.0
0.91 0.04 0.0
0.92 0.04 0.0
0.93 0.04 0.0
0.9400000000000001 0.04 0.0
0.9500000000000001 0.04 0.0
0.96 0.04 0.0
0.97 0.04 0.0
0.98 0.04 0.0
0.99 0.04 0.0
1.0 0.04 0.0
0.0 0.05 0.0
0.01 0.05 0.0
0.02 0.05 0.0
0.03 0.05 0.0
0.04 0.05 0.0
0.05 0.05 0.0
0.06 0.05 0.0
0.07 0.05 0.0
0.08 0.05 0.0
0.09 0.05 0.0
0.1 0.05 0.0
0.11 0.05 0.0
0.12 0.05 0.0
0.13 0.05 0.0
0.14 0.05 0.0
0.15 0.05 0.0
0.16 0.05 0.0
0.17 0.05 0.0
0.18 0.05 0.0
0.19 0.05 0.0
0.2 0.05 0.0
0.21 0.05 0.0
0.22 0.05 0.0
0.23 0.05 0.0
0.24 0.05 0.0
0.25 0.05 0.0
0.26 0.05 0.0
0.27 0.05 0.0
0.28 0.05 0.0
0.29 0.05 0.0
0.3 0.05 0.0
0.31 0.05 0.0
0.32 0.05 0.0
0.33 0.05 0.0
0.34 0.05 0.0
0.35000000000000003 0.05 0.0
0.36 0.05 0.0
0.37 0.05 0.0
0.38 0.05 0.0
0.39 0.05 0.0
0.4 0.05 0.0
0.41000000000000003 0.05 0.0
0.42 0.05 0.0
0.43 0.05 0.0
0.44 0.05 0.0
0.45 0.05 0.0
0.46 0.05 0.0
0.47000000000000003 0.05 0.0
0.48 0.05 0.0
0.49 0.05 0.0
0.5 0.05 0.0
0.51 0.05 0.0
0.52 0.05 0.0
0.53 0.05 0.0
0.54 0.05 0.0
0.55 0.05 0.0
0.56 0.05 0.0
0.5700000000000001 0.05 0.0
0.58 0.05 0.0
0.59 0.05 0.0
0.6 0.05 0.0
0.61 0.05 0.0
0.62 0.05 0.0
0.63 0.05 0.0
0.64 0.05 0.0
0.65 0.05 0.0
0.66 0.05 0.0
0.67 0.05 0.0
0.68 0.05 0.0
0.6900000000000001 0.05 0.0
0.7000000000000001 0.05 0.0
0.71 0.05 0.0
0.72 0.05 0.0
0.73 0.05 0.0
0.74 0.05 0.0
0.75 0.05 0.0
0.76 0.05 0.0
0.77 0.05 0.0
0.78 0.05 0.0
0.79 0.05 0.0
0.8 0.05 0.0
0.81 0.05 0.0
0.8200000000000001 0.05 0.0
0.8300000000000001 0.05 0.0
0.84 0.05 0.0
0.85 0.05 0.0
0.86 0.05 0.0
0.87 0.05 0.0
0.88 0.05 0.0
0.89 0.05 0.0
0.9 0.05 0.0
0.91 0.05 0.0
0.92 0.05 0.0
0.93 0.05 0.0
0.9400000000000001 0.05 0.0
0.9500000000000001 0.05 0.0
0.96 0.05 0.0
0.97 0.05 0.0
0.98 0.05 0.0
0.99 0.05 0.0
1.0 0.05 0.0
0.0 0.06 0.0
0.01 0.06 0.0
0.02 0.06 0.0
0.03 0.06 0.0
0.04 0.06 0.0
0.05 0.06 0.0
0.06 0.06 0.0
0.07 0.06 0.0
0.08 0.06 0.0
0.09 0.06 0.0
0.1 0.06 0.0
0.11 0.06 0.0
0.12 0.06 0.0
0.13 0.06 0.0
0.14 0.06 0.0
0.15 0.06 0.0
0.16 0.06 0.0
0.17 0.06 0.0
0.18 0.06 0.0
0.19 0.06 0.0
0.2 0.06 0.0
0.21 0.06 0.0
0.22 0.06 0.0
0.23 0.06 0.0
0.24 0.06 0.0
0.25 0.06 0.0
0.26 0.06 0.0
0.27 0.06 0.0
0.28 0.06 0.0
0.29 0.06 0.0
0.3 0.06 0.0
0.31 0.06 0.0
0.32 0.06 0.0
0.33 0.06 0.0
0.34 0.06 0.0
0.35000000000000003 0.06 0.0
0.36 0.06 0.0
0.37 0.06 0.0
0.38 0.06 0.0
0.39 0.06 0.0
0.4 0.06 0.0
0.41000000000000003 0.06 0.0
0.42 0.06 0.0
0.43 0.06 0.0
0.44 0.06 0.0
0.45 0.06 0.0
0.46 0.06 0.0
[...]
POINT_DATA  10201
FIELD  FlowField  5
Density    1 10201  double
3.6245541550864013
3.6847668567513767
3.816005177501459
3.9638336985276585
4.1227994947349345
4.290293180996622
4.461524203892092
4.631506688243555
4.795957537947223
4.951680564170293
5.096653342504272
5.229923144719219
5.351398663610401
5.461598735337187
5.561393079824487
5.651780908416185
5.733786161120202
5.808215518456746
5.8754171589008095
5.93526967049878
5.98718012462799
6.030089849872567
6.062512458647323
6.082608993952958
6.088249543656441
6.077068078164706
6.046496319236093
5.993799905883595
5.916173657316588
5.810862496034047
5.675300996827803
5.50726843748844
5.30504729041144
5.067559678413744
4.794483570738675
4.486448275004134
4.1450880648008175
3.772972206302586
3.3741795364616234
2.955842717280375
2.530314689720392
2.1169709408575335
1.7422107859676825
1.4350861514053947
1.2168210912210458
1.0887526162644536
1.0294716865087974
1.0081766664340646
1.0020093373904606
1.0004555831868478
1.0000967720461407
1.0000193596324056
1.0000036580121905
1.0000006545044848
1.0000001112047197
1.0000000179981914
1.000000002784077
1.0000000004130327
1.0000000000589715
1.00000000000813
1.0000000000010851
1.0000000000001399
1.0000000000000173
1.0000000000000022
1.0
1.0
1.0
1.0
1.0
1.0
1.0
1.0
1.0
1.0
1.0
1.0
1.0
1.0
1.0
1.0
1.0
1.0
1.0
1.0
1.0
1.0
1.0
1.0
1.0
1.0
1.0
1.0
1.0
1.0
1.0
1.0
1.0
1.0
1.0
1.0
1.0
3.4805258798276175
3.5059591145547446
3.570559269240789
3.652164513476289
3.7398684798061423
3.8323936630733515
3.927783004567379
4.023781227188053
4.118274152059322
4.209523224281613
4.296254294801971
4.377640730496822
4.45322905903707
4.522841218133443
4.586468621779533
4.6442233196200045
4.69632859175981
4.74291539511792
4.783880160415876
4.818936236434354
4.847621113016682
4.8693077312835875
4.88323664207065
4.888563455080949
4.884435549429002
4.870028446665328
4.844511765993858
4.807040584904555
4.756762711875084
4.692804852540699
4.614238079248944
4.520022777411569
4.408935633164317
4.279483083428482
4.129816231858015
3.9576765028253584
3.760427422342972
3.535284502018907
3.2799041402864617
2.9935261980583547
2.6788372780645946
2.344434769736119
2.006937022040008
1.6906502510368697
1.4226996740686306
1.2237186154598003
1.0987108544567392
1.035107796842726
1.0100231394746848
1.002411768956423
1.000522638394053
1.0001054416161748
1.000020016971052
1.0000035911768292
1.0000006108128838
1.000000098813138
1.000000015256427
1.0000000022562445
1.0000000003207692
1.000000000043996
1.0000000000058413
1.0000000000007525
1.0000000000000941
1.0000000000000115
1.000000000000001
1.0
1.0
1.0
1.0
1.0
1.0
1.0
1.0
1.0
1.0
1.0
1.0
1.0
1.0
1.0
1.0
1.0
1.0
1.0
1.0
1.0
1.0
1.0
1.0
1.0
1.0
1.0
1.0
1.0
1.0
1.0
1.0
1.0
1.0
1.0
1.0
3.4012197924011796
3.3857767930097795
3.359463832585343
3.3361940516305952
3.3105525452522473
3.284192063269501
3.258748959239636
3.2353171344897174
3.214543178134858
3.1967454386356335
3.182033682110454
3.1703906647986937
3.161717610453378
3.155859695845595
3.152622483966658
3.151864905341969
3.1535602209526674
3.157637280280831
3.1639356279045368
3.172299959282351
3.182576674387732
3.1945971483565345
3.2081576250497315
3.2230188154507133
3.2390065524488434
3.256064264938337
3.2741886934830426
3.2933834187000315
3.3136092809617774
3.3347037992367166
3.356266240233326
3.3775097564976484
3.397088178657123
3.412911817773286
3.4219620122025685
3.4200790036171074
3.4018852238699617
3.3609475564981333
3.289968462996613
3.181074999649833
3.0266320796953923
2.821123228642019
2.5641790775054494
2.264354212422268
1.9424105279410753
1.631015070145925
1.3674727031150187
1.1791501965374727
1.070132869199045
1.0213978381264677
1.0051946315428104
1.0010861992518754
1.0002085123610613
1.0000375761107487
1.0000064028054563
1.0000010357636948
1.0000001596545445
1.0000000235378903
1.000000003331797
1.000000000454512
1.0000000000599685
1.0000000000076779
1.0000000000009563
1.000000000000116
1.0000000000000135
1.0000000000000013
1.0
1.0
1.0
1.0
1.0
1.0
1.0
1.0
1.0
1.0
1.0
1.0
1.0
1.0
1.0
1.0
1.0
1.0
1.0
1.0
1.0
1.0
1.0
1.0
1.0
1.0
1.0
1.0
1.0
1.0
1.0
1.0
1.0
1.0
1.0
3.537776250372054
3.5114310481062834
3.4462603960592784
3.3642675458290308
3.276311218830081
3.186986828151654
3.0993382964198983
3.015271476833802
2.9359800145094797
2.862222547047645
2.7945351437914714
2.7333620117339987
2.679112652327319
2.6321745195154502
2.5929109009737865
2.561710516404647
2.539012840789513
2.525176674027826
2.5204239757421933
2.5248915751188337
2.5386111100059177
2.5614625032147473
2.593117396557002
2.633016581082182
2.680453679356521
2.734658739721302
2.794779664979375
2.859844039107142
2.928745172078692
3.0002309818920017
3.072885705963983
3.1451050441830635
3.2150645352923757
3.2806771978633975
3.3395325055948657
3.3888060314679485
3.4251284469658563
3.4444068446241354
3.4416054398245683
3.410522104187803
3.343661670317692
3.2324266823754217
3.0680644067874234
2.844033227722587
2.560252495352027
2.228823239922609
1.8784450853161325
1.5520166735298717
1.29323893414014
1.125820789484487
1.041679133909131
1.010509967145544
1.0021526969826215
1.0003942530237881
1.000067451621634
1.0000109160475825
1.0000016799627405
1.000000246892044
1.0000000347895135
1.0000000047190258
1.0000000006185454
1.000000000078621
1.0000000000097211
1.0000000000011722
1.000000000000138
1.0000000000000155
1.0000000000000013
1.0
1.0
1.0
1.0
1.0
1.0
1.0
1.0
1.0
1.0
1.0
1.0
1.0
1.0
1.0
1.0
1.0
1.0
1.0
1.0
1.0
1.0
1.0
1.0
1.0
1.0
1.0
1.0
1.0
1.0
1.0
1.0
1.0
1.0
3.636437966284182
3.6004793536682103
3.5077552574942152
3.3891319099679986
3.264433420234048
3.1404823626398093
3.0215039140056366
2.9097896720606964
2.80646771383598
2.7120104469655915
2.6265711197200896
2.550185761433871
2.482875804372332
2.424690264919681
2.375723379296421
2.336140046512842
2.306177867149944
2.286077896908154
2.276030991895085
2.276177947029947
2.286592658867261
2.307239147542178
2.3379222489144134
2.378250551387565
2.427656836071977
2.485476170809882
2.550974449618512
2.6233182256548515
2.701555427333026
2.784602272634074
2.8712250638364085
2.9600191580776176
3.049388939226742
3.137528888193612
3.2224007935832732
3.3016969760189254
3.3727751750359163
3.4325488915358013
3.4773173105368214
3.5025235668574513
3.5024478560889634
3.4698854825126286
3.3959546037498938
3.270369100154498
3.0828468143863765
2.826574811891948
2.504283786281513
2.135833586729709
1.7620289115413204
1.4366598445661043
1.2038019161412248
1.0734862269363736
1.0196680144349557
1.0040287204966594
1.0007076241046602
1.0001150079226515
1.000017681296344
1.0000025900712897
1.0000003632191243
1.0000000489721592
1.000000006374109
1.000000000803932
1.00000000009859
1.0000000000117917
1.000000000001379
1.0000000000001577
1.0000000000000173
1.0000000000000016
1.0
1.0
1.0
1.0
1.0
1.0
1.0
1.0
1.0
1.0
1.0
1.0
1.0
1.0
1.0
1.0
1.0
1.0
1.0
1.0
1.0
1.0
1.0
1.0
1.0
1.0
1.0
1.0
1.0
1.0
1.0
1.0
1.0
3.65783351650117
3.611760670891254
3.493335110857044
3.3435203866252614
3.1883075561391667
3.035803694885971
2.8910832207578103
2.7567485384213
2.6338666762695646
2.522655864376426
2.4229313660632417
2.3343697233926552
2.2566474262150953
2.1895038622642335
2.1327684763275263
2.086368422979006
2.050314219137171
2.0246804849997004
2.0095864028672974
2.0051694726564744
2.011555584834108
2.0288187004523652
2.056930789072547
2.0957075645026246
2.1447701545743296
2.2035761523571282
2.2715019950086073
2.347868387471619
2.431909312059286
2.5227434177149126
2.6193452158789694
2.720513661206697
2.8248460090618663
2.930722243532008
3.036299922336986
3.139512873266001
3.2380614311810847
3.3293786885852557
3.410554028782655
3.4781918192183854
3.528182770145927
3.555372898125977
3.5531412582898674
3.5129650006407136
3.4241994384382393
3.2746143665972407
3.0527221562628624
2.7531462417469497
2.385347418692233
1.9825259899290146
1.6012613366190969
1.3023946399755608
1.1180666753011015
1.0338598474109606
1.007081578858666
1.0012027901316212
1.000185945709091
1.000027171542026
1.0000037915327726
1.000000507925502
1.0000000656156631
1.000000008207325
1.000000000997638
1.0000000001182296
1.0000000000136988
1.0000000000015556
1.0000000000001732
1.0000000000000187
1.0000000000000018
1.0
1.0
1.0
1.0
1.0
1.0
1.0
1.0
1.0
1.0
1.0
1.0
1.0
1.0
1.0
1.0
1.0
1.0
1.0
1.0
1.0
1.0
1.0
1.0
1.0
1.0
1.0
1.0
1.0
1.0
1.0
1.0
3.6264887657808536
3.5687758661875453
3.4238555109318956
3.2452848477757805
3.0634133687987877
2.8867685381907013
2.7207727533149413
2.568108956545479
2.429679240282381
2.3054058729726092
2.194757028658729
2.0970578620086644
2.01165450826409
1.9379889644657449
1.8756267832782563
1.8242557647468303
1.7836703018671893
1.7537619267264213
1.7345168691990926
1.7260007465199116
1.7283337574776165
1.7416549766032439
1.7660710576130512
1.8015989901251623
1.8481035065121052
1.9052572923326645
1.9725800863852179
2.0495376856025347
2.1355765163929195
2.2300766653361626
2.332295446005522
2.441314160285858
2.5559903234779955
2.6749254804229716
2.7964544762221597
2.918654374686557
3.0393639369221934
3.15620126728664
3.266564365463249
3.3675940859089035
3.4560733439087565
3.528232306623136
3.579430055457843
3.6036963052122704
3.593160407615266
3.5375068294819476
3.4238479420212764
3.237936650990981
2.968285243130129
2.6146112145023164
2.1996861494835263
1.776540752982086
1.4167624627932855
1.1747347072666219
1.0536666225697329
1.0116350239354592
1.001931379249576
1.0002846099740692
1.0000395642427438
1.000005264774854
1.0000006746740078
1.0000000836408318
1.0000000100709934
1.0000000011818466
1.0000000001355767
1.0000000000152425
1.0000000000016827
1.0000000000001825
1.0000000000000195
1.0000000000000018
1.0
1.0
1.0
1.0
1.0
1.0
1.0
1.0
1.0
1.0
1.0
1.0
1.0
1.0
1.0
1.0
1.0
1.0
1.0
1.0
1.0
1.0
1.0
1.0
1.0
1.0
1.0
1.0
1.0
1.0
1.0
3.562497378740045
3.490879470276142
3.3167847257144696
3.1096482763001037
2.903091783314023
2.7054407519472745
2.5218725429488567
2.3547827349588344
2.204684085113164
2.0710767871896945
1.9530184324907978
1.8494557066602157
1.7593952352281472
1.681977563712794
1.6164984382298837
1.562402558540842
1.5192699629675546
1.4868054334564114
1.4648288116204329
1.4532673991424576
1.4521503509921332
1.4615916849509643
1.4817597212064462
1.5128254399827255
1.5548909012912302
1.6079187627129596
1.6716856644191194
1.745825379369653
1.8299534648402462
1.9237207992970358
2.0267399498978995
2.138481893897357
2.2581913833130596
2.384819192597016
2.5169843064388733
2.6529699527594564
2.7907447160978838
2.9279997954665555
3.0621930762137337
3.1905852585158647
3.3102459311291765
3.4180000688805023
3.510278998872307
3.582836296371865
3.630293331003631
3.6455047342323366
3.6188123948949706
3.537455877941858
3.3858700307666454
3.1484369337344584
2.8168521932559827
2.4029796764049913
1.9520512065540339
1.5401061971440098
1.2408975362667058
1.0787558321046025
1.0178220636387132
1.0029228532169394
1.0004117342243806
1.0000545188180834
1.0000069281662836
1.000000850719453
1.0000001013945112
1.0000000117742525
1.000000001336382
1.0000000001486553
1.000000000016243
1.0000000000017462
1.000000000000185
1.000000000000019
1.0000000000000016
1.0
1.0
1.0
1.0
1.0
1.0
1.0
1.0
1.0
1.0
1.0
1.0
1.0
1.0
1.0
1.0
1.0
1.0
1.0
1.0
1.0
1.0
1.0
1.0
1.0
1.0
1.0
1.0
1.0
1.0
3.4795449429197753
3.3915055441754776
3.184775928478693
2.9482167963785817
2.718068979097328
2.5020023038265062
2.3043358384092105
2.1267199230407345
1.9689710978349821
1.8299780691520242
1.7082832076155006
1.6024040977185594
1.5109874725932897
1.4328660635619923
1.3670657208781565
1.3127913401690832
1.2694087717035583
1.236428478906568
1.2134918701147583
1.2003622906011373
1.1969212232172
1.203169496290614
1.2192273056581437
1.2453147091922834
1.281701291625438
1.3286256441262734
1.3862060740468438
1.45438043296526
1.532955117797422
1.6217598950882666
1.7207293442614429
1.8297902629088716
1.9486897014605005
2.076880290793369
2.2134401913202257
2.3570332027759067
2.5059039954704483
2.657902936943454
2.81053826563587
2.961045853244603
3.1064614271040014
3.2436722414056405
3.3694151872517324
3.4801804695862844
3.5719739816430915
3.6398900459625914
3.6774582615577107
3.675781784298933
3.622634118968524
3.5020682592680883
3.295946279158887
2.989869390127125
2.585777655544484
2.1190645735755984
1.6650801461020115
1.3125648324472183
1.1078472089525186
1.0254606177964294
1.0041605283886401
1.000562111669955
1.0000710154709076
1.0000086335667935
1.0000010177907006
1.0000001168597465
1.0000000131132707
1.0000000014422505
1.0000000001558436
1.0000000000165772
1.0000000000017386
1.00000000000018
1.000000000000018
1.0000000000000013
1.0
1.0
1.0
1.0
1.0
1.0
1.0
1.0
1.0
1.0
1.0
1.0
1.0
1.0
1.0
1.0
1.0
1.0
1.0
1.0
1.0
1.0
1.0
1.0
1.0
1.0
1.0
1.0
1.0
3.3862063983173427
3.2792192160620277
3.0363245310938316
2.7694901966742567
2.5169917144070677
2.28530332235552
2.077259575797468
1.8932594448407514
1.732091691502159
1.5918335283570753
1.47040841275164
1.3658603241948417
1.2764635125044352
1.2007461043739922
1.1374748548926348
1.0856272927821697
1.0443638085151727
1.0130040088504273
0.9910093935279194
0.9779733949034273
0.9736183801013703
0.9777986308645178
0.9905083630933882
1.0118935913447547
1.0422507508575336
1.0819869216057088
1.1315231250449518
1.1911798657895287
1.261107303512102
1.3413422375154092
1.4319912967671011
1.5333360917014769
1.6456755939908179
1.7690811212826882
1.9032509038478453
2.047422819474117
2.200334196857593
2.3602141360511517
2.5248053609792827
2.6914198946707755
2.857029057962686
3.0183739464810895
3.1720654917344713
3.3146372468638345
3.442506268271658
3.551788972794612
3.6379133930208214
3.6949746902715472
3.714811315459734
3.6858925209287685
3.5924270616359135
3.4148922792356675
3.13450632414991
2.74488578963544
2.271277433890264
1.7849357504559116
1.385081433086742
1.1388997016803246
1.0340174046623682
1.0055631168650463
1.0007232186160546
1.0000873548472473
1.0000101814954638
1.00000115488683
1.000000128018739
1.0000000139108287
1.000000001485462
1.0000000001562037
1.000000000016203
1.0000000000016604
1.0000000000001674
1.000000000000016
1.0000000000000013
1.0
1.0
1.0
1.0
1.0
1.0
1.0
1.0
1.0
1.0
1.0
1.0
1.0
1.0
1.0
1.0
1.0
1.0
1.0
1.0
1.0
1.0
1.0
1.0
1.0
1.0
1.0
1.0
3.287279048526153
3.158972323478624
2.8768297863370873
2.5796238913535574
2.3068943584629364
2.063083356584508
1.8488439141867141
1.6628475951603172
1.5025736478745362
1.36513658876619
1.2477726038816974
1.1480310169268186
1.0638174441779253
0.9933718037888633
0.9352241323703631
0.8881485834144928
0.8511235863851421
0.823300720287701
0.8039830923781767
0.7926128219784085
0.788766463458971
0.7921570975657698
0.8026424004438353
0.8202388451825999
0.8451422913693215
0.8777452273210871
0.9186071730447439
0.9683489875460494
1.027514197469777
1.0964991600651774
1.1756207559506942
1.265309294883081
1.366234770436794
1.4791060722195788
1.6043472725955883
1.7419258710941419
1.891276029984818
2.0512526229797325
2.2201029360592255
2.3954768423896575
2.574488044743116
2.7538229008273523
2.929881283441515
3.0989242769039613
3.257186426502466
3.4008975904318652
3.5261557287283285
3.6285859930929156
3.7027184656126533
3.741034332432016
3.7327140784956447
3.662379504160481
3.509841334016598
3.2532673664526013
2.8796190795500243
2.4047693999189352
1.8941719028420998
1.4538178774803645
1.1694372709546659
1.0426812213186851
1.006983951389394
1.0008759146191242
1.0001013882190481
1.0000113569817066
1.0000012425323304
1.0000001332836077
1.0000000140548277
1.0000000014600634
1.0000000001496812
1.0000000000151643
1.000000000001519
1.00000000000015
1.0000000000000147
1.000000000000001
1.0
1.0
1.0
1.0
1.0
1.0
1.0
1.0
1.0
1.0
1.0
1.0
1.0
1.0
1.0
1.0
1.0
1.0
1.0
1.0
1.0
1.0
1.0
1.0
1.0
1.0
1.0
3.1848234618242
3.0331660378679253
2.709609828637045
2.383183810308793
2.0935594615344897
1.8419744243617078
1.626143939766495
1.442637842192012
1.2874359763509342
1.1566169118097716
1.0467136100733416
0.9547921462779118
0.8784143238434317
0.8155635006436495
0.7645685487674965
0.7240385987727531
0.6928113952789703
0.6699146554898417
0.6545389664316422
0.6460204966616959
0.643831760677554
0.647579027574613
0.6570060047603469
0.6720046706104863
0.6926345399113519
0.7191506340424074
0.7520366656312306
0.7919936047292916
0.839823037544438
0.8962696753372771
0.9619879821705415
1.0376110738590014
1.1239226269492297
1.2220003151096932
1.3329664250591944
1.4576003836862093
1.5961692640232001
1.7483545130429576
1.913176672303276
2.0889412020812594
2.273233839838827
2.4629789321176885
2.6545646958047064
2.8440194162019576
3.027205362077981
3.19998626433984
3.3583124035061807
3.4981546378104476
3.615212904885078
3.704322481656296
3.7584880020182543
3.7675328259356733
3.7165691149899924
3.5851419816968453
3.349308108269618
2.990839299170458
2.51753908772006
1.9887283161545484
1.5146693907802735
1.1969157824910035
1.0505039833400565
1.0082338348856923
1.0009977779191939
1.0001109654875862
1.0000119783795958
1.000001267338314
1.0000001318689566
1.0000000135242135
1.0000000013694823
1.000000000137117
1.0000000000135891
1.000000000001334
1.0000000000001297
1.0000000000000122
1.0000000000000009
1.0
1.0
1.0
1.0
1.0
1.0
1.0
1.0
1.0
1.0
1.0
1.0
1.0
1.0
1.0
1.0
1.0
1.0
1.0
1.0
1.0
1.0
1.0
1.0
1.0
1.0
3.0790367694875656
2.90253036377953
2.5367226269036403
2.1837995051910073
1.8818999903664482
1.6276084493094276
1.4150017017589294
1.2383176168939547
1.091961806100713
0.9709928861620742
0.8712863756042412
0.7894754473443683
0.7228263082029843
0.6691127439670508
0.6265110258163888
0.5935180360721268
0.5688890792904809
0.5515909557796803
0.5407669923387485
0.535711817962436
0.5358541433481976
0.5407463068094878
0.5500606447563705
0.5635943099147716
0.5812845847781711
0.6032353515024176
0.6297533468199558
0.6613917145094934
0.6989524614193814
0.7433522584977019
0.7954926474180861
0.8562908265375343
0.9266980602189192
1.0078541569510526
1.101250855588986
1.2084003732793112
1.33042244426202
1.4679146809405421
1.6208605171982744
1.7885044744303582
1.9692583498285203
2.1606753427363454
2.3595082478389555
2.561849370761906
2.76333723237936
2.959399410032073
3.1454790420232666
3.317180635093738
3.4702631356478477
3.6003991947125007
3.7026133438616275
3.770309842773854
3.793844300358803
3.7587853389321593
3.6445899081178412
3.4258009978510735
3.0801728341431724
2.608915081424699
2.065869868470886
1.5643260930709604
1.2190460344186689
1.0565703196236558
1.0091224244893469
1.0010684651248656
1.0001144807883158
1.0000119440145387
1.000001225393031
1.0000001239853824
1.0000000123940493
1.0000000012257693
1.0000000001200744
1.0000000000116616
1.0000000000011238
1.000000000000107
1.0000000000000095
1.0000000000000007
1.0
1.0
1.0
1.0
1.0
1.0
1.0
1.0
1.0
1.0
1.0
1.0
1.0
1.0
1.0
1.0
1.0
1.0
1.0
1.0
1.0
1.0
1.0
1.0
1.0
2.968973587567628
2.7669008998411533
2.3597425123078697
1.9847747094583217
1.6763156504843444
1.4247336144328093
1.2200050378754006
1.0539791643091398
0.9195502827080446
0.8108617376960795
0.7232286521317998
0.6529300932238756
0.5970016984724228
0.5530673623587085
0.519212634544939
0.4938905425644967
0.47584905188703713
0.4640727096579042
0.45773527486488214
0.45616244821081775
0.4588038550770511
0.4652131872188233
0.47503657898539803
0.48801123650976264
0.5039768218786963
0.5229001510643658
0.544911032216757
0.5703463432390913
0.5998007447865035
0.6341221153460951
0.6742650918114105
0.7212608200384767
0.7762636879718328
0.8404987673252768
0.9154674141529004
1.0030522638147346
1.1050932216487008
1.2230457567951742
1.3578826224943974
1.5099338193017058
1.678712241241524
1.8627831296253174
2.0597091496459647
2.266097059464116
2.477751337735495
2.6899161142234345
2.8975655383534313
3.0956884367530217
3.27949711874458
3.4444780804801183
3.586202893074659
3.6997910808323415
3.7789223856380065
3.814355010541515
3.792019079420623
3.6913074530137346
3.485584127103833
3.1494608434980975
2.679009340323276
2.123918526069622
1.6003589537873728
1.2340281447214927
1.0601513146776793
1.0095048010724523
1.0010753689329306
1.0001113236653072
1.0000112599664561
1.0000011232877188
1.0000001107879144
1.00000001081805
1.0000000010469698
1.0000000001005172
1.0000000000095806