# vtk DataFile Version 3.0 
shock_diffraction_time_series_337_.vtk
ASCII
DATASET UNSTRUCTURED_GRID
POINTS         10201 double
0.0 0.0 0.0
0.01 0.0 0.0
0.02 0.0 0.0
0.03 0.0 0.0
0.04 0.0 0.0
0.05 0.0 0.0
0.06 0.0 0.0
0.07 0.0 0.0
0.08 0.0 0.0
0.09 0.0 0.0
0.1 0.0 0.0
0.11 0.0 0.0
0.12 0.0 0.0
0.13 0.0 0.0
0.14 0.0 0.0
0.15 0.0 0.0
0.16 0.0 0.0
0.17 0.0 0.0
0.18 0.0 0.0
0.19 0.0 0.0
0.2 0.0 0.0
0.21 0.0 0.0
0.22 0.0 0.0
0.23 0.0 0.0
0.24 0.0 0.0
0.25 0.0 0.0
0.26 0.0 0.0
0.27 0.0 0.0
0.28 0.0 0.0
0.29 0.0 0.0
0.3 0.0 0.0
0.31 0.0 0.0
0.32 0.0 0.0
0.33 0.0 0.0
0.34 0.0 0.0
0.35000000000000003 0.0 0.0
0.36 0.0 0.0
0.37 0.0 0.0
0.38 0.0 0.0
0.39 0.0 0.0
0.4 0.0 0.0
0.41000000000000003 0.0 0.0
0.42 0.0 0.0
0.43 0.0 0.0
0.44 0.0 0.0
0.45 0.0 0.0
0.46 0.0 0.0
0.47000000000000003 0.0 0.0
0.48 0.0 0.0
0.49 0.0 0.0
0.5 0.0 0.0
0.51 0.0 0.0
0.52 0.0 0.0
0.53 0.0 0.0
0.54 0.0 0.0
0.55 0.0 0.0
0.56 0.0 0.0
0.5700000000000001 0.0 0.0
0.58 0.0 0.0
0.59 0.0 0.0
0.6 0.0 0.0
0.61 0.0 0.0
0.62 0.0 0.0
0.63 0.0 0.0
0.64 0.0 0.0
0.65 0.0 0.0
0.66 0.0 0.0
0.67 0.0 0.0
0.68 0.0 0.0
0.6900000000000001 0.0 0.0
0.7000000000000001 0.0 0.0
0.71 0.0 0.0
0.72 0.0 0.0
0.73 0.0 0.0
0.74 0.0 0.0
0.75 0.0 0.0
0.76 0.0 0.0
0.77 0.0 0.0
0.78 0.0 0.0
0.79 0.0 0.0
0.8 0.0 0.0
0.81 0.0 0.0
0.8200000000000001 0.0 0.0
0.8300000000000001 0.0 0.0
0.84 0.0 0.0
0.85 0.0 0.0
0.86 0.0 0.0
0.87 0.0 0.0
0.88 0.0 0.0
0.89 0.0 0.0
0.9 0.0 0.0
0.91 0.0 0.0
0.92 0.0 0.0
0.93 0.0 0.0
0.9400000000000001 0.0 0.0
0.9500000000000001 0.0 0.0
0.96 0.0 0.0
0.97 0.0 0.0
0.98 0.0 0.0
0.99 0.0 0.0
1.0 0.0 0.0
0.0 0.01 0.0
0.01 0.01 0.0
0.02 0.01 0.0
0.03 0.01 0.0
0.04 0.01 0.0
0.05 0.01 0.0
0.06 0.01 0.0
0.07 0.01 0.0
0.08 0.01 0.0
0.09 0.01 0.0
0.1 0.01 0.0
0.11 0.01 0.0
0.12 0.01 0.0
0.13 0.01 0.0
0.14 0.01 0.0
0.15 0.01 0.0
0.16 0.01 0.0
0.17 0.01 0.0
0.18 0.01 0.0
0.19 0.01 0.0
0.2 0.01 0.0
0.21 0.01 0.0
0.22 0.01 0.0
0.23 0.01 0.0
0.24 0.01 0.0
0.25 0.01 0.0
0.26 0.01 0.0
0.27 0.01 0.0
0.28 0.01 0.0
0.29 0.01 0.0
0.3 0.01 0.0
0.31 0.01 0.0
0.32 0.01 0.0
0.33 0.01 0.0
0.34 0.01 0.0
0.35000000000000003 0.01 0.0
0.36 0.01 0.0
0.37 0.01 0.0
0.38 0.01 0.0
0.39 0.01 0.0
0.4 0.01 0.0
0.41000000000000003 0.01 0.0
0.42 0.01 0.0
0.43 0.01 0.0
0.44 0.01 0.0
0.45 0.01 0.0
0.46 0.01 0.0
0.47000000000000003 0.01 0.0
0.48 0.01 0.0
0.49 0.01 0.0
0.5 0.01 0.0
0.51 0.01 0.0
0.52 0.01 0.0
0.53 0.01 0.0
0.54 0.01 0.0
0.55 0.01 0.0
0.56 0.01 0.0
0.5700000000000001 0.01 0.0
0.58 0.01 0.0
0.59 0.01 0.0
0.6 0.01 0.0
0.61 0.01 0.0
0.62 0.01 0.0
0.63 0.01 0.0
0.64 0.01 0.0
0.65 0.01 0.0
0.66 0.01 0.0
0.67 0.01 0.0
0.68 0.01 0.0
0.6900000000000001 0.01 0.0
0.7000000000000001 0.01 0.0
0.71 0.01 0.0
0.72 0.01 0.0
0.73 0.01 0.0
0.74 0.01 0.0
0.75 0.01 0.0
0.76 0.01 0.0
0.77 0.01 0.0
0.78 0.01 0.0
0.79 0.01 0.0
0.8 0.01 0.0
0.81 0.01 0.0
0.8200000000000001 0.01 0.0
0.8300000000000001 0.01 0.0
0.84 0.01 0.0
0.85 0.01 0.0
0.86 0.01 0.0
0.87 0.01 0.0
0.88 0.01 0.0
0.89 0.01 0.0
0.9 0.01 0.0
0.91 0.01 0.0
0.92 0.01 0.0
0.93 0.01 0.0
0.9400000000000001 0.01 0.0
0.9500000000000001 0.01 0.0
0.96 0.01 0.0
0.97 0.01 0.0
0.98 0.01 0.0
0.99 0.01 0.0
1.0 0.01 0.0
0.0 0.02 0.0
0.01 0.02 0.0
0.02 0.02 0.0
0.03 0.02 0.0
0.04 0.02 0.0
0.05 0.02 0.0
0.06 0.02 0.0
0.07 0.02 0.0
0.08 0.02 0.0
0.09 0.02 0.0
0.1 0.02 0.0
0.11 0.02 0.0
0.12 0.02 0.0
0.13 0.02 0.0
0.14 0.02 0.0
0.15 0.02 0.0
0.16 0.02 0.0
0.17 0.02 0.0
0.18 0.02 0.0
0.19 0.02 0.0
0.2 0.02 0.0
0.21 0.02 0.0
0.22 0.02 0.0
0.23 0.02 0.0
0.24 0.02 0.0
0.25 0.02 0.0
0.26 0.02 0.0
0.27 0.02 0.0
0.28 0.02 0.0
0.29 0.02 0.0
0.3 0.02 0.0
0.31 0.02 0.0
0.32 0.02 0.0
0.33 0.02 0.0
0.34 0.02 0.0
0.35000000000000003 0.02 0.0
0.36 0.02 0.0
0.37 0.02 0.0
0.38 0.02 0.0
0.39 0.02 0.0
0.4 0.02 0.0
0.41000000000000003 0.02 0.0
0.42 0.02 0.0
0.43 0.02 0.0
0.44 0.02 0.0
0.45 0.02 0.0
0.46 0.02 0.0
0.47000000000000003 0.02 0.0
0.48 0.02 0.0
0.49 0.02 0.0
0.5 0.02 0.0
0.51 0.02 0.0
0.52 0.02 0.0
0.53 0.02 0.0
0.54 0.02 0.0
0.55 0.02 0.0
0.56 0.02 0.0
0.5700000000000001 0.02 0.0
0.58 0.02 0.0
0.59 0.02 0.0
0.6 0.02 0.0
0.61 0.02 0.0
0.62 0.02 0.0
0.63 0.02 0.0
0.64 0.02 0.0
0.65 0.02 0.0
0.66 0.02 0.0
0.67 0.02 0.0
0.68 0.02 0.0
0.6900000000000001 0.02 0.0
0.7000000000000001 0.02 0.0
0.71 0.02 0.0
0.72 0.02 0.0
0.73 0.02 0.0
0.74 0.02 0.0
0.75 0.02 0.0
0.76 0.02 0.0
0.77 0.02 0.0
0.78 0.02 0.0
0.79 0.02 0.0
0.8 0.02 0.0
0.81 0.02 0.0
0.8200000000000001 0.02 0.0
0.8300000000000001 0.02 0.0
0.84 0.02 0.0
0.85 0.02 0.0
0.86 0.02 0.0
0.87 0.02 0.0
0.88 0.02 0.0
0.89 0.02 0.0
0.9 0.02 0.0
0.91 0.02 0.0
0.92 0.02 0.0
0.93 0.02 0.0
0.9400000000000001 0.02 0.0
0.9500000000000001 0.02 0.0
0.96 0.02 0.0
0.97 0.02 0.0
0.98 0.02 0.0
0.99 0.02 0.0
1.0 0.02 0.0
0.0 0.03 0.0
0.01 0.03 0.0
0.02 0.03 0.0
0.03 0.03 0.0
0.04 0.03 0.0
0.05 0.03 0.0
0.06 0.03 0.0
0.07 0.03 0.0
0.08 0.03 0.0
0.09 0.03 0.0
0.1 0.03 0.0
0.11 0.03 0.0
0.12 0.03 0.0
0.13 0.03 0.0
0.14 0.03 0.0
0.15 0.03 0.0
0.16 0.03 0.0
0.17 0.03 0.0
0.18 0.03 0.0
0.19 0.03 0.0
0.2 0.03 0.0
0.21 0.03 0.0
0.22 0.03 0.0
0.23 0.03 0.0
0.24 0.03 0.0
0.25 0.03 0.0
0.26 0.03 0.0
0.27 0.03 0.0
0.28 0.03 0.0
0.29 0.03 0.0
0.3 0.03 0.0
0.31 0.03 0.0
0.32 0.03 0.0
0.33 0.03 0.0
0.34 0.03 0.0
0.35000000000000003 0.03 0.0
0.36 0.03 0.0
0.37 0.03 0.0
0.38 0.03 0.0
0.39 0.03 0.0
0.4 0.03 0.0
0.41000000000000003 0.03 0.0
0.42 0.03 0.0
0.43 0.03 0.0
0.44 0.03 0.0
0.45 0.03 0.0
0.46 0.03 0.0
0.47000000000000003 0.03 0.0
0.48 0.03 0.0
0.49 0.03 0.0
0.5 0.03 0.0
0.51 0.03 0.0
0.52 0.03 0.0
0.53 0.03 0.0
0.54 0.03 0.0
0.55 0.03 0.0
0.56 0.03 0.0
0.5700000000000001 0.03 0.0
0.58 0.03 0.0
0.59 0.03 0.0
0.6 0.03 0.0
0.61 0.03 0.0
0.62 0.03 0.0
0.63 0.03 0.0
0.64 0.03 0.0
0.65 0.03 0.0
0.66 0.03 0.0
0.67 0.03 0.0
0.68 0.03 0.0
0.6900000000000001 0.03 0.0
0.7000000000000001 0.03 0.0
0.71 0.03 0.0
0.72 0.03 0.0
0.73 0.03 0.0
0.74 0.03 0.0
0.75 0.03 0.0
0.76 0.03 0.0
0.77 0.03 0.0
0.78 0.03 0.0
0.79 0.03 0.0
0.8 0.03 0.0
0.81 0.03 0.0
0.8200000000000001 0.03 0.0
0.8300000000000001 0.03 0.0
0.84 0.03 0.0
0.85 0.03 0.0
0.86 0.03 0.0
0.87 0.03 0.0
0.88 0.03 0.0
0.89 0.03 0.0
0.9 0.03 0.0
0.91 0.03 0.0
0.92 0.03 0.0
0.93 0.03 0.0
0.9400000000000001 0.03 0.0
0.9500000000000001 0.03 0.0
0.96 0.03 0.0
0.97 0.03 0.0
0.98 0.03 0.0
0.99 0.03 0.0
1.0 0.03 0.0
0.0 0.04 0.0
0.01 0.04 0.0
0.02 0.04 0.0
0.03 0.04 0.0
0.04 0.04 0.0
0.05 0.04 0.0
0.06 0.04 0.0
0.07 0.04 0.0
0.08 0.04 0.0
0.09 0.04 0.0
0.1 0.04 0.0
0.11 0.04 0.0
0.12 0.04 0.0
0.13 0.04 0.0
0.14 0.04 0.0
0.15 0.04 0.0
0.16 0.04 0.0
0.17 0.04 0.0
0.18 0.04 0.0
0.19 0.04 0.0
0.2 0.04 0.0
0.21 0.04 0.0
0.22 0.04 0.0
0.23 0.04 0.0
0.24 0.04 0.0
0.25 0.04 0.0
0.26 0.04 0.0
0.27 0.04 0.0
0.28 0.04 0.0
0.29 0.04 0.0
0.3 0.04 0.0
0.31 0.04 0.0
0.32 0.04 0.0
0.33 0.04 0.0
0.34 0.04 0.0
0.35000000000000003 0.04 0.0
0.36 0.04 0.0
0.37 0.04 0.0
0.38 0.04 0.0
0.39 0.04 0.0
0.4 0.04 0.0
0.41000000000000003 0.04 0.0
0.42 0.04 0.0
0.43 0.04 0.0
0.44 0.04 0.0
0.45 0.04 0.0
0.46 0.04 0.0
0.47000000000000003 0.04 0.0
0.48 0.04 0.0
0.49 0.04 0.0
0.5 0.04 0.0
0.51 0.04 0.0
0.52 0.04 0.0
0.53 0.04 0.0
0.54 0.04 0.0
0.55 0.04 0.0
0.56 0.04 0.0
0.5700000000000001 0.04 0.0
0.58 0.04 0.0
0.59 0.04 0.0
0.6 0.04 0.0
0.61 0.04 0.0
0.62 0.04 0.0
0.63 0.04 0.0
0.64 0.04 0.0
0.65 0.04 0.0
0.66 0.04 0.0
0.67 0.04 0.0
0.68 0.04 0.0
0.6900000000000001 0.04 0.0
0.7000000000000001 0.04 0.0
0.71 0.04 0.0
0.72 0.04 0.0
0.73 0.04 0.0
0.74 0.04 0.0
0.75 0.04 0.0
0.76 0.04 0.0
0.77 0.04 0.0
0.78 0.04 0.0
0.79 0.04 0.0
0.8 0.04 0.0
0.81 0.04 0.0
0.8200000000000001 0.04 0.0
0.8300000000000001 0.04 0.0
0.84 0.04 0.0
0.85 0.04 0.0
0.86 0.04 0.0
0.87 0.04 0.0
0.88 0.04 0.0
0.89 0.04 0.0
0.9 0.04 0.0
0.91 0.04 0.0
0.92 0.04 0.0
0.93 0.04 0.0
0.9400000000000001 0.04 0.0
0.9500000000000001 0.04 0.0
0.96 0.04 0.0
0.97 0.04 0.0
0.98 0.04 0.0
0.99 0.04 0.0
1.0 0.04 0.0
0.0 0.05 0.0
0.01 0.05 0.0
0.02 0.05 0.0
0.03 0.05 0.0
0.04 0.05 0.0
0.05 0.05 0.0
0.06 0.05 0.0
0.07 0.05 0.0
0.08 0.05 0.0
0.09 0.05 0.0
0.1 0.05 0.0
0.11 0.05 0.0
0.12 0.05 0.0
0.13 0.05 0.0
0.14 0.05 0.0
0.15 0.05 0.0
0.16 0.05 0.0
0.17 0.05 0.0
0.18 0.05 0.0
0.19 0.05 0.0
0.2 0.05 0.0
0.21 0.05 0.0
0.22 0.05 0.0
0.23 0.05 0.0
0.24 0.05 0.0
0.25 0.05 0.0
0.26 0.05 0.0
0.27 0.05 0.0
0.28 0.05 0.0
0.29 0.05 0.0
0.3 0.05 0.0
0.31 0.05 0.0
0.32 0.05 0.0
0.33 0.05 0.0
0.34 0.05 0.0
0.35000000000000003 0.05 0.0
0.36 0.05 0.0
0.37 0.05 0.0
0.38 0.05 0.0
0.39 0.05 0.0
0.4 0.05 0.0
0.41000000000000003 0.05 0.0
0.42 0.05 0.0
0.43 0.05 0.0
0.44 0.05 0.0
0.45 0.05 0.0
0.46 0.05 0.0
0.47000000000000003 0.05 0.0
0.48 0.05 0.0
0.49 0.05 0.0
0.5 0.05 0.0
0.51 0.05 0.0
0.52 0.05 0.0
0.53 0.05 0.0
0.54 0.05 0.0
0.55 0.05 0.0
0.56 0.05 0.0
0.5700000000000001 0.05 0.0
0.58 0.05 0.0
0.59 0.05 0.0
0.6 0.05 0.0
0.61 0.05 0.0
0.62 0.05 0.0
0.63 0.05 0.0
0.64 0.05 0.0
0.65 0.05 0.0
0.66 0.05 0.0
0.67 0.05 0.0
0.68 0.05 0.0
0.6900000000000001 0.05 0.0
0.7000000000000001 0.05 0.0
0.71 0.05 0.0
0.72 0.05 0.0
0.73 0.05 0.0
0.74 0.05 0.0
0.75 0.05 0.0
0.76 0.05 0.0
0.77 0.05 0.0
0.78 0.05 0.0
0.79 0.05 0.0
0.8 0.05 0.0
0.81 0.05 0.0
0.8200000000000001 0.05 0.0
0.8300000000000001 0.05 0.0
0.84 0.05 0.0
0.85 0.05 0.0
0.86 0.05 0.0
0.87 0.05 0.0
0.88 0.05 0.0
0.89 0.05 0.0
0.9 0.05 0.0
0.91 0.05 0.0
0.92 0.05 0.0
0.93 0.05 0.0
0.9400000000000001 0.05 0.0
0.9500000000000001 0.05 0.0
0.96 0.05 0.0
0.97 0.05 0.0
0.98 0.05 0.0
0.99 0.05 0.0
1.0 0.05 0.0
0.0 0.06 0.0
0.01 0.06 0.0
0.02 0.06 0.0
0.03 0.06 0.0
0.04 0.06 0.0
0.05 0.06 0.0
0.06 0.06 0.0
0.07 0.06 0.0
0.08 0.06 0.0
0.09 0.06 0.0
0.1 0.06 0.0
0.11 0.06 0.0
0.12 0.06 0.0
0.13 0.06 0.0
0.14 0.06 0.0
0.15 0.06 0.0
0.16 0.06 0.0
0.17 0.06 0.0
0.18 0.06 0.0
0.19 0.06 0.0
0.2 0.06 0.0
0.21 0.06 0.0
0.22 0.06 0.0
0.23 0.06 0.0
0.24 0.06 0.0
0.25 0.06 0.0
0.26 0.06 0.0
0.27 0.06 0.0
0.28 0.06 0.0
0.29 0.06 0.0
0.3 0.06 0.0
0.31 0.06 0.0
0.32 0.06 0.0
0.33 0.06 0.0
0.34 0.06 0.0
0.35000000000000003 0.06 0.0
0.36 0.06 0.0
0.37 0.06 0.0
0.38 0.06 0.0
0.39 0.06 0.0
0.4 0.06 0.0
0.41000000000000003 0.06 0.0
0.42 0.06 0.0
0.43 0.06 0.0
0.44 0.06 0.0
0.45 0.06 0.0
0.46 0.06 0.0
[...]
POINT_DATA  10201
FIELD  FlowField  4
Density    1 10201  double
1.0660271147901863
1.0724667041541167
1.08993974539971
1.1174494991355512
1.156918832765795
1.2099058903044098
1.276495845714675
1.3549757952331565
1.4420553313826536
1.533517913852241
1.624997780232921
1.7126084830139883
1.7932956047439226
1.8649142343063803
1.9261047345879108
1.9760809389925125
2.014401593694493
2.0407624753711007
2.0548483263574466
2.056254044525261
2.0444702488037247
2.0189177505940794
1.979025521374335
1.9243720214960507
1.8549084496004948
1.7712580722920799
1.6750671469465366
1.569352917312874
1.4587326879296962
1.3493501386287976
1.248289537946612
1.162343314743328
1.0962701512162316
1.0512091459207131
1.024348282850763
1.0104181330347546
1.004069170159712
1.0014702852524402
1.0004953801255425
1.0001562148672982
1.0000461763445672
1.0000128037904759
1.000003332133385
1.0000008144834478
1.0000001871801694
1.0000000405001408
1.0000000082651095
1.000000001594366
1.0000000002914695
1.0000000000506433
1.0000000000083888
1.0000000000013285
1.0000000000002016
1.0000000000000295
1.000000000000004
1.0000000000000004
1.0
1.0
1.0
1.0
1.0
1.0
1.0
1.0
1.0
1.0
1.0
1.0
1.0
1.0
1.0
1.0
1.0
1.0
1.0
1.0
1.0
1.0
1.0
1.0
1.0
1.0
1.0
1.0
1.0
1.0
1.0
1.0
1.0
1.0
1.0
1.0
1.0
1.0
1.0
1.0
1.0
1.0
1.0
1.0
1.0
1.1620488161657887
1.1738491538983136
1.2047216496596027
1.2502606953862052
1.3107590491041863
1.3856754970144898
1.4727443202305746
1.5682831343740835
1.6678517874940746
1.7670052188400076
1.8618972582022948
1.9496130657253878
2.0282395697487337
2.0967398649242304
2.1547046090879096
2.202087688189961
2.2389803384954012
2.265423838913141
2.281284892405965
2.286198456494149
2.2795670358871476
2.2605930903605116
2.2283272828058784
2.1817635926472683
2.120010832459475
2.042532755241803
1.949459404794481
1.8419652841667045
1.7226644948934147
1.5959132652189187
1.4678420771434155
1.345895711954332
1.2377233945170127
1.1495693368643494
1.0847058923460273
1.04251373061211
1.0187547204762681
1.0073121019143945
1.002567351549967
1.0008284293769534
1.0002486335466396
1.000069769631993
1.0000183445352526
1.0000045246391787
1.000001048002772
1.000000228253373
1.0000000468263222
1.0000000090678807
1.0000000016617647
1.0000000002890326
1.000000000047866
1.0000000000075728
1.0000000000011484
1.0000000000001674
1.000000000000023
1.0000000000000027
1.0000000000000004
1.0
1.0
1.0
1.0
1.0
1.0
1.0
1.0
1.0
1.0
1.0
1.0
1.0
1.0
1.0
1.0
1.0
1.0
1.0
1.0
1.0
1.0
1.0
1.0
1.0
1.0
1.0
1.0
1.0
1.0
1.0
1.0
1.0
1.0
1.0
1.0
1.0
1.0
1.0
1.0
1.0
1.0
1.0
1.0
1.4624847597265735
1.4834104193998505
1.5367128077241956
1.6107502683576354
1.7012855583821738
1.8035020027221722
1.911662456675767
2.020056683872092
2.123861897397654
2.219619438089756
2.3053240050020607
2.3802399444951217
2.444581600333245
2.4991536648680635
2.545009580694324
2.583173591023125
2.6144520239620155
2.639317364849572
2.65784566061206
2.669704944676745
2.6741830294616262
2.670219405332898
2.6564103454852392
2.6310387325611604
2.5921426261983527
2.5376079063896544
2.465331050271751
2.3734892484992596
2.260952087249119
2.127855795482354
1.976304493298896
1.8110535647058026
1.6398928014189913
1.4733451084917442
1.3232592069386615
1.2001215254228903
1.1099748482785123
1.0525396730769048
1.02154870630072
1.0076361930775113
1.00240143167457
1.0006901862264308
1.0001842400633687
1.0000459752513309
1.000010753429224
1.0000023615048848
1.0000004877542608
1.0000000949480474
1.0000000174634982
1.0000000030437015
1.0000000005043272
1.0000000000797222
1.0000000000120663
1.0000000000017548
1.0000000000002454
1.0000000000000329
1.000000000000004
1.0000000000000004
1.0
1.0
1.0
1.0
1.0
1.0
1.0
1.0
1.0
1.0
1.0
1.0
1.0
1.0
1.0
1.0
1.0
1.0
1.0
1.0
1.0
1.0
1.0
1.0
1.0
1.0
1.0
1.0
1.0
1.0
1.0
1.0
1.0
1.0
1.0
1.0
1.0
1.0
1.0
1.0
1.0
1.0
1.0
1.9439305031447285
1.9658443653680029
2.0219053137262395
2.0979399043030242
2.185567735131503
2.277521198831934
2.367692155033164
2.4515067831212995
2.526171690693927
2.5905456382272316
2.6447878712139836
2.689940538967242
2.7275348206941055
2.7592568262119244
2.7867198834781393
2.811273698030685
2.8338604992171086
2.8549810824501507
2.874693961643441
2.892634387599271
2.9080591244442164
2.919879633872913
2.9266719538968227
2.926687522492623
2.9178387307663702
2.897674550635434
2.8633874907393206
2.811863244053726
2.7398103664721827
2.644029778821787
2.5218986751665
2.372139745941878
2.195899824964841
1.9979964552184972
1.7878883303335715
1.579642749425095
1.3901429228934852
1.235050020812107
1.123581864611842
1.055249211479345
1.020680489717079
1.0065534782599799
1.0018271856419778
1.0004653463372464
1.0001102000568363
1.0000244248362302
1.0000050818178339
1.0000009948338255
1.0000001837050472
1.0000000320919606
1.0000000053211744
1.0000000008404524
1.000000000126924
1.0000000000183968
1.0000000000025682
1.000000000000346
1.0000000000000449
1.0000000000000058
1.0000000000000007
1.0
1.0
1.0
1.0
1.0
1.0
1.0
1.0
1.0
1.0
1.0
1.0
1.0
1.0
1.0
1.0
1.0
1.0
1.0
1.0
1.0
1.0
1.0
1.0
1.0
1.0
1.0
1.0
1.0
1.0
1.0
1.0
1.0
1.0
1.0
1.0
1.0
1.0
1.0
1.0
1.0
1.0
2.493210602709051
2.503907156520522
2.5347008004568856
2.579613474914003
2.630104839720228
2.679876263109993
2.7249638123564504
2.763140527263329
2.7936729256094246
2.8169816098500893
2.834259820826047
2.8471239779905773
2.8573271255228443
2.8665448096530084
2.87629517876871
2.8878029225088366
2.901852320828279
2.918805981355607
2.9386321501349912
2.960924603588916
2.9849382424174795
3.0096265458614107
3.0336991227293266
3.055630739345885
3.073599985611549
3.08544017513721
3.0885946655322205
3.080067500114208
3.056382139249844
3.0135746560752814
2.947269225757526
2.852920605276494
2.7263494002339916
2.5647138349182157
2.3680223711415174
2.141096562731423
1.8953613145761357
1.649202173289941
1.4254972789787512
1.2455352440594427
1.120997787483256
1.0493788478581925
1.016440569385115
1.0045701394481141
1.001119815753148
1.0002519591605528
1.00005289241609
1.0000104191475554
1.0000019322809262
1.0000003384061482
1.0000000561557778
1.0000000088621024
1.0000000013352344
1.0000000001928329
1.0000000000267975
1.0000000000035962
1.0000000000004674
1.000000000000059
1.000000000000007
1.0000000000000007
1.0
1.0
1.0
1.0
1.0
1.0
1.0
1.0
1.0
1.0
1.0
1.0
1.0
1.0
1.0
1.0
1.0
1.0
1.0
1.0
1.0
1.0
1.0
1.0
1.0
1.0
1.0
1.0
1.0
1.0
1.0
1.0
1.0
1.0
1.0
1.0
1.0
1.0
1.0
1.0
1.0
2.9804733355255104
2.9721822871075605
2.9604190430328963
2.955526278801824
2.9523899482343627
2.947758308299748
2.940355070594302
2.929827079265074
2.9165219052315936
2.9013177552656466
2.8854358583325777
2.870257259385177
2.8571637300752544
2.8474309453069893
2.842251705828874
2.842594090834814
2.8490290482494034
2.8617841832016038
2.880768289741769
2.905572256838827
2.9354735242705967
2.96948293082207
3.0064530917137873
3.0450848156580967
3.083849450667589
3.120951815534186
3.1542890714522738
3.181392355042963
3.1993517969439824
3.20472962817254
3.193471289544706
3.160839698407216
3.101428180260384
3.009361858269891
2.878880150455312
2.7055574888749043
2.4883715181270087
2.2325836162246793
1.9525574693992946
1.6724150357823033
1.4221774599175565
1.2283651111074518
1.1026042247672596
1.0370058792478876
1.0106401381689933
1.0025544160721371
1.0005482026211654
1.0001090044631402
1.000020319810167
1.0000035687838755
1.0000005927607234
1.0000000934677242
1.0000000140483472
1.0000000020210509
1.0000000002794511
1.000000000037284
1.000000000004817
1.000000000000604
1.0000000000000735
1.0000000000000084
1.0000000000000007
1.0
1.0
1.0
1.0
1.0
1.0
1.0
1.0
1.0
1.0
1.0
1.0
1.0
1.0
1.0
1.0
1.0
1.0
1.0
1.0
1.0
1.0
1.0
1.0
1.0
1.0
1.0
1.0
1.0
1.0
1.0
1.0
1.0
1.0
1.0
1.0
1.0
1.0
1.0
1.0
3.3379570186138077
3.3089716257039687
3.2511629123459502
3.1937477498380096
3.136430248847982
3.0794205799593453
3.023746208623532
2.9701973982942533
2.9194416251904256
2.8721804410579357
2.829201836370699
2.7913515133872733
2.7594690871304657
2.734354495572868
2.716837879780314
2.7076241281721325
2.707110969677329
2.715451507925071
2.732560964777
2.7580889676885425
2.7913874157834533
2.831549794421977
2.8775461551737096
2.928245235434193
2.982340649943216
3.038323259707154
3.0944555639544205
3.148730496544407
3.198813423540582
3.2419665711407224
3.274952244410791
3.2939119120245044
3.2942261034062383
3.270380150173807
3.2159047056719117
3.123538376913089
2.985895139813808
2.7970506311451393
2.555412593556442
2.2678379159050612
1.9536038990694948
1.6447841427174166
1.3794173704025319
1.1869342539482737
1.0738706541236556
1.0226550032585102
1.0054805607990538
1.0011317146428358
1.0002133741052506
1.0000376317423356
1.0000062583509206
1.0000009860572834
1.0000001478300975
1.0000000211809603
1.000000002913027
1.0000000003861707
1.0000000000495384
1.000000000006171
1.000000000000749
1.0000000000000888
1.00000000000001
1.0000000000000009
1.0
1.0
1.0
1.0
1.0
1.0
1.0
1.0
1.0
1.0
1.0
1.0
1.0
1.0
1.0
1.0
1.0
1.0
1.0
1.0
1.0
1.0
1.0
1.0
1.0
1.0
1.0
1.0
1.0
1.0
1.0
1.0
1.0
1.0
1.0
1.0
1.0
1.0
1.0
3.557650203848475
3.5095497796164397
3.409581174477668
3.3051138971294187
3.200501616131083
3.0987992642884628
3.0027559234069185
2.9138457477284048
2.8327339280035226
2.7597454791983056
2.6951289807992507
2.639157043151342
2.592139484305895
2.554435706948136
2.5265177346610384
2.50884070833398
2.5016834242267043
2.505178433776442
2.5193030293520033
2.5438251194860637
2.578243532182976
2.6217873448267506
2.6735337034928457
2.732477356758544
2.7974843094120434
2.867258109057765
2.940322331924344
3.014992118834982
3.089334318247863
3.1611184129692536
3.2277549859195247
3.286212577002828
3.3329004011744896
3.3635063751327876
3.372792643942777
3.354378203165782
3.3005987014429135
3.2026525585154775
3.0514577061206323
2.8398569564906513
2.5667212614633357
2.2427527788771275
1.8954131395482432
1.567393010672249
1.3038830677008029
1.1312775506242465
1.0436201860239869
1.0109457657390215
1.0022084788004526
1.0003958897961251
1.0000660679184532
1.0000104052308292
1.000001555907873
1.000000221970156
1.000000030353442
1.0000000039963886
1.0000000005087266
1.0000000000628484
1.0000000000075606
1.0000000000008884
1.000000000000102
1.0000000000000113
1.000000000000001
1.0
1.0
1.0
1.0
1.0
1.0
1.0
1.0
1.0
1.0
1.0
1.0
1.0
1.0
1.0
1.0
1.0
1.0
1.0
1.0
1.0
1.0
1.0
1.0
1.0
1.0
1.0
1.0
1.0
1.0
1.0
1.0
1.0
1.0
1.0
1.0
1.0
1.0
3.6620870242855963
3.5970237205962414
3.4599600152888916
3.315156733069931
3.1711659817114826
3.0328959087156098
2.9041916050897103
2.786902704431914
2.681572527150542
2.5881289976846675
2.5063094820860585
2.435865128345865
2.3766374517907902
2.3285951095824275
2.291856787025142
2.266621815474107
2.2530688413546764
2.251329464611722
2.261462652600344
2.283388842942684
2.316813625094958
2.3611763642866035
2.415694575045537
2.479474538653661
2.551538964736209
2.6307878270023988
2.715972211831525
2.8056653033325536
2.8982249609226454
2.991755708548834
3.0840730818826767
3.1726646090345847
3.2546334021986607
3.3266053703181173
3.3845810821571343
3.4237166199252114
3.4380330342165752
3.420094751794895
3.3607884626608073
3.249520450114998
3.0754910509816304
2.8310055223553947
2.51750473603567
2.1534574984416865
1.7790274314365464
1.4490757321105117
1.2104411125055663
1.0758779847201998
1.0201559304611436
1.0040550177336036
1.000694641056107
1.0001097673648132
1.0000163783640263
1.000002326108954
1.0000003161484128
1.0000000413201284
1.0000000052166331
1.0000000006387573
1.0000000000761282
1.0000000000088582
1.0000000000010085
1.0000000000001124
1.0000000000000122
1.000000000000001
1.0
1.0
1.0
1.0
1.0
1.0
1.0
1.0
1.0
1.0
1.0
1.0
1.0
1.0
1.0
1.0
1.0
1.0
1.0
1.0
1.0
1.0
1.0
1.0
1.0
1.0
1.0
1.0
1.0
1.0
1.0
1.0
1.0
1.0
1.0
1.0
1.0
3.6814885688051406
3.6009367530349383
3.4301559255484877
3.2497566970818625
3.072505936521782
2.904252484246453
2.7492749163789583
2.609456272958658
2.485085966788376
2.37567776817583
2.2804928866771297
2.198813542135761
2.1300623575879025
2.073846856792949
2.029951492882707
1.9983046260306665
1.9789422338684721
1.9719653122891667
1.97748877421583
1.9955736109401558
2.0261469032954884
2.0689181984275633
2.123333795229179
2.188643267996552
2.264016319989296
2.3485644598657243
2.4412953617857536
2.541065829642636
2.6465287918788185
2.7560834148597806
2.8678398787410737
2.9796002859058373
3.0888459699036392
3.1927134343868206
3.2879379937423687
3.3707403917850645
3.4366292109968892
3.480096790566117
3.4942097874007514
3.470160294051944
3.396989875312277
3.2620117794410977
3.0529795741154215
2.7633546110576286
2.4012063097340923
1.9988460104207109
1.61357670485786
1.3089371456647347
1.1201796005311322
1.0340720469592277
1.00697010307947
1.0011498928537765
1.0001722830173367
1.0000243731325789
1.000003291410674
1.0000004268043288
1.0000000534068396
1.000000006477216
1.0000000007643082
1.0000000000880371
1.000000000009926
1.0000000000010978
1.000000000000119
1.0000000000000124
1.000000000000001
1.0
1.0
1.0
1.0
1.0
1.0
1.0
1.0
1.0
1.0
1.0
1.0
1.0
1.0
1.0
1.0
1.0
1.0
1.0
1.0
1.0
1.0
1.0
1.0
1.0
1.0
1.0
1.0
1.0
1.0
1.0
1.0
1.0
1.0
1.0
1.0
3.642645111155427
3.5471995292315137
3.3440356704672296
3.1304022414058714
2.9238249651415193
2.7304867355545617
2.5544178576218326
2.3971084003260312
2.2583661887182522
2.1372011318473496
2.032385357179502
1.9427515244583895
1.867325050889116
1.805362845951197
1.756338412085921
1.719914958892211
1.6959295996396437
1.6843671396017663
1.6853182951998094
1.6989220555548858
1.725284282357837
1.7643842987928124
1.81598220257824
1.8795796250674524
1.9545088963874726
2.0400769771608562
2.135587257553436
2.2402554327682935
2.353117726449315
2.4729474420791657
2.5981940399883907
2.7269532885808587
2.8569658994624554
2.985630378845956
3.1100127812052043
3.2268327123987666
3.332397180545242
3.4224466506039235
3.491875306218229
3.534298254219012
3.5414798732904824
3.5027474218811254
3.404768034581665
3.2326127796761908
2.9737486466281626
2.6265859646966314
2.2129469786986085
1.7864230880716858
1.421287265466594
1.1752870403885982
1.052958472423938
1.0111675956557753
1.0017913906241802
1.000255001816845
1.0000342451765576
1.0000044037744178
1.0000005457964778
1.0000000655153607
1.0000000076483182
1.000000000871429
1.000000000097192
1.0000000000106375
1.0000000000011444
1.0000000000001208
1.0000000000000124
1.000000000000001
1.0
1.0
1.0
1.0
1.0
1.0
1.0
1.0
1.0
1.0
1.0
1.0
1.0
1.0
1.0
1.0
1.0
1.0
1.0
1.0
1.0
1.0
1.0
1.0
1.0
1.0
1.0
1.0
1.0
1.0
1.0
1.0
1.0
1.0
1.0
3.5655731666459607
3.455139460083567
3.219512092578843
2.9734992053614206
2.740147157302525
2.525621272752261
2.3330162473721328
2.1629399390803736
2.014411621430423
1.8857781128462303
1.775259664415401
1.6812260407984714
1.6023085699137696
1.5374212543405719
1.4857401223687663
1.4466747231047377
1.4198408128436895
1.4050353211314333
1.4022176448085752
1.4114811919803008
1.4330047456558597
1.4669726671303265
1.5134648963471093
1.5723526984764677
1.6432611726848487
1.7256802225346835
1.8191511267192582
1.9232828090490799
2.037599305435708
2.1613898178189785
2.29359538058001
2.4327372869159323
2.5768937357594197
2.7237140101998745
2.870452858751828
3.014013006391623
3.1509766456185675
3.277594025202838
3.389686551302397
3.4824146681200596
3.5498625596917392
3.5844153567024923
3.5759830092345632
3.511326041365251
3.3742183458861503
3.1480705260971447
2.8233651972330778
2.411085757509561
1.9570850671286406
1.5402948934365002
1.2381314123252345
1.0761514320365229
1.016644628535914
1.0026203589011857
1.0003553432155399
1.000045373486883
1.0000055666660945
1.0000006607959215
1.0000000762547123
1.00000000858717
1.0000000009466474
1.000000000102427
1.0000000000109008
1.0000000000011426
1.0000000000001181
1.000000000000012
1.0000000000000009
1.0
1.0
1.0
1.0
1.0
1.0
1.0
1.0
1.0
1.0
1.0
1.0
1.0
1.0
1.0
1.0
1.0
1.0
1.0
1.0
1.0
1.0
1.0
1.0
1.0
1.0
1.0
1.0
1.0
1.0
1.0
1.0
1.0
1.0
3.4636645419122623
3.337714624471431
3.0688851065646143
2.790994531644651
2.5332058242505937
2.3012848025815926
2.0967069286818307
1.9186801971426792
1.7651069697773818
1.6334907392713065
1.5214216753703869
1.4267859625094934
1.3478262487201684
1.2831299078444556
1.2315909806149732
1.1923689221050413
1.1648512260158574
1.1486242423606745
1.1434543528115768
1.1492791723849942
1.1662024932801778
1.1944661477946912
1.2343750478089839
1.2861739210120717
1.3499195603802656
1.4254367321197845
1.5124595972541541
1.6108662017019508
1.7206766419219437
1.8418096161100415
1.9738617514114896
2.1159754759082396
2.2667712059942264
2.4243290398731916
2.58620193839422
2.7494613693952323
2.9107722566355942
3.066472693645118
3.2126220412440305
3.3449696256521864
3.4587844770312914
3.548482175595815
3.60699669495328
3.6248971429850325
3.5894074526633775
3.4838874804352065
3.2892401773747846
2.989913425430819
2.587084449643597
2.117024990885201
1.6584921103791812
1.3044181216935549
1.1021036823533537
1.0230933206518418
1.0035922153828871
1.0004654621276097
1.0000566296081996
1.0000066433405195
1.0000007571073304
1.0000000841911971
1.0000000091661159
1.000000000979722
1.0000000001030367
1.0000000000106817
1.0000000000010931
1.0000000000001106
1.0000000000000107
1.0000000000000007
1.0
1.0
1.0
1.0
1.0
1.0
1.0
1.0
1.0
1.0
1.0
1.0
1.0
1.0
1.0
1.0
1.0
1.0
1.0
1.0
1.0
1.0
1.0
1.0
1.0
1.0
1.0
1.0
1.0
1.0
1.0
1.0
1.0
3.345020068660875
3.202836486149454
2.9000900258753224
2.59146224471233
2.312357212720796
2.0674394024722673
1.8558506174812244
1.6749178944875482
1.5211555121703626
1.3910914355692556
1.2816382621130489
1.19019691197158
1.1146415112944021
1.0532607025948348
1.0046913835447477
0.9678593300170006
0.9419317905339792
0.9262844382446225
0.9204824520050401
0.9242738361797169
0.9375932567959209
0.960575409757894
0.9935545660905205
1.0370053437073572
1.0913954926063645
1.1570277977750838
1.2339970295019964
1.3223706345665815
1.4224530097653993
1.5347480568141927
1.659620015895902
1.797005601686156
1.9462842204517903
2.1062145404261674
2.2749051371613906
2.449820174729051
2.6278327176967835
2.805322125958455
2.9782983119053483
3.1425146969716766
3.293509443870941
3.4265058052345987
3.5360960933878185
3.615634808528831
3.656302127136423
3.6459171381048225
3.567917118274947
3.4017713291490184
3.1275436465892223
2.7381982397098685
2.2602559259267725
1.7692208549644177
1.3693934268419008
1.1286365403757423
1.0299084501839197
1.0046095920893439
1.000572355960733
1.0000665152010766
1.0000074809682231
1.0000008206677378
1.0000000881599078
1.0000000093009973
1.0000000009659271
1.00000000009893
1.0000000000100078
1.000000000001001
1.0000000000000986
1.0000000000000089
1.0000000000000007
1.0
1.0
1.0
1.0
1.0
1.0
1.0
1.0
1.0
1.0
1.0
1.0
1.0
1.0
1.0
1.0
1.0
1.0
1.0
1.0
1.0
1.0
1.0
1.0
1.0
1.0
1.0
1.0
1.0
1.0
1.0
1.0
3.2139552280026047
3.0548755582867164
2.718138012547981
2.3812551240128372
2.0852759077000815
1.8326322811905278
1.6194157101201743
1.4407183613334442
1.29150785873619
1.167290841072279
1.0643092153935712
0.9795083752048275
0.9104330677429899
0.8551148415948773
0.811973875839634
0.7797410744494375
0.7574005688890619
0.7441509684602199
0.7393828166552523
0.742669689496087
0.7537715927435901
0.7726510880677971
0.7995031044253252
0.8347824644197589
0.8791554610481567
0.93332680744064
0.9978665197603468
1.07319951398039
1.159800763789041
1.2584523495403754
1.3701769407609987
1.4958009101454572
1.6356191693576245
1.7892878806130663
1.955755081604618
2.133201390498646
2.3190244812968257
2.5098927454862463
2.70186837935367
2.890576531853754
3.0713775579395026
3.2394826263936256
3.3899329022168554
3.517349051085539
3.6153614788850623
3.675651502079336
3.686624063122558
3.632014026898887
3.4905180552833013
3.239081221373554
2.864087504625331
2.38316940490768
1.8671878654965932
1.4285161169445364
1.153300595376591
1.0362936070468278
1.0055338733064845
1.0006599727987013
1.0000734724665838
1.0000079458254687
1.0000008414151917
1.0000000875454909
1.0000000089712047
1.0000000009071521
1.0000000000906537
1.000000000008964
1.0000000000008773
1.0000000000000844
1.000000000000008
1.0000000000000007
1.0
1.0
1.0
1.0
1.0
1.0
1.0
1.0
1.0
1.0
1.0
1.0
1.0
1.0
1.0
1.0
1.0
1.0
1.0
1.0
1.0
1.0
1.0
1.0
1.0
1.0
1.0
1.0
1.0
1.0
1.0
3.072327740802229
2.895990243469525