# vtk DataFile Version 3.0 
shock_diffraction_time_series_51_.vtk
ASCII
DATASET UNSTRUCTURED_GRID
POINTS         10201 double
0.0 0.0 0.0
0.01 0.0 0.0
0.02 0.0 0.0
0.03 0.0 0.0
0.04 0.0 0.0
0.05 0.0 0.0
0.06 0.0 0.0
0.07 0.0 0.0
0.08 0.0 0.0
0.09 0.0 0.0
0.1 0.0 0.0
0.11 0.0 0.0
0.12 0.0 0.0
0.13 0.0 0.0
0.14 0.0 0.0
0.15 0.0 0.0
0.16 0.0 0.0
0.17 0.0 0.0
0.18 0.0 0.0
0.19 0.0 0.0
0.2 0.0 0.0
0.21 0.0 0.0
0.22 0.0 0.0
0.23 0.0 0.0
0.24 0.0 0.0
0.25 0.0 0.0
0.26 0.0 0.0
0.27 0.0 0.0
0.28 0.0 0.0
0.29 0.0 0.0
0.3 0.0 0.0
0.31 0.0 0.0
0.32 0.0 0.0
0.33 0.0 0.0
0.34 0.0 0.0
0.35000000000000003 0.0 0.0
0.36 0.0 0.0
0.37 0.0 0.0
0.38 0.0 0.0
0.39 0.0 0.0
0.4 0.0 0.0
0.41000000000000003 0.0 0.0
0.42 0.0 0.0
0.43 0.0 0.0
0.44 0.0 0.0
0.45 0.0 0.0
0.46 0.0 0.0
0.47000000000000003 0.0 0.0
0.48 0.0 0.0
0.49 0.0 0.0
0.5 0.0 0.0
0.51 0.0 0.0
0.52 0.0 0.0
0.53 0.0 0.0
0.54 0.0 0.0
0.55 0.0 0.0
0.56 0.0 0.0
0.5700000000000001 0.0 0.0
0.58 0.0 0.0
0.59 0.0 0.0
0.6 0.0 0.0
0.61 0.0 0.0
0.62 0.0 0.0
0.63 0.0 0.0
0.64 0.0 0.0
0.65 0.0 0.0
0.66 0.0 0.0
0.67 0.0 0.0
0.68 0.0 0.0
0.6900000000000001 0.0 0.0
0.7000000000000001 0.0 0.0
0.71 0.0 0.0
0.72 0.0 0.0
0.73 0.0 0.0
0.74 0.0 0.0
0.75 0.0 0.0
0.76 0.0 0.0
0.77 0.0 0.0
0.78 0.0 0.0
0.79 0.0 0.0
0.8 0.0 0.0
0.81 0.0 0.0
0.8200000000000001 0.0 0.0
0.8300000000000001 0.0 0.0
0.84 0.0 0.0
0.85 0.0 0.0
0.86 0.0 0.0
0.87 0.0 0.0
0.88 0.0 0.0
0.89 0.0 0.0
0.9 0.0 0.0
0.91 0.0 0.0
0.92 0.0 0.0
0.93 0.0 0.0
0.9400000000000001 0.0 0.0
0.9500000000000001 0.0 0.0
0.96 0.0 0.0
0.97 0.0 0.0
0.98 0.0 0.0
0.99 0.0 0.0
1.0 0.0 0.0
0.0 0.01 0.0
0.01 0.01 0.0
0.02 0.01 0.0
0.03 0.01 0.0
0.04 0.01 0.0
0.05 0.01 0.0
0.06 0.01 0.0
0.07 0.01 0.0
0.08 0.01 0.0
0.09 0.01 0.0
0.1 0.01 0.0
0.11 0.01 0.0
0.12 0.01 0.0
0.13 0.01 0.0
0.14 0.01 0.0
0.15 0.01 0.0
0.16 0.01 0.0
0.17 0.01 0.0
0.18 0.01 0.0
0.19 0.01 0.0
0.2 0.01 0.0
0.21 0.01 0.0
0.22 0.01 0.0
0.23 0.01 0.0
0.24 0.01 0.0
0.25 0.01 0.0
0.26 0.01 0.0
0.27 0.01 0.0
0.28 0.01 0.0
0.29 0.01 0.0
0.3 0.01 0.0
0.31 0.01 0.0
0.32 0.01 0.0
0.33 0.01 0.0
0.34 0.01 0.0
0.35000000000000003 0.01 0.0
0.36 0.01 0.0
0.37 0.01 0.0
0.38 0.01 0.0
0.39 0.01 0.0
0.4 0.01 0.0
0.41000000000000003 0.01 0.0
0.42 0.01 0.0
0.43 0.01 0.0
0.44 0.01 0.0
0.45 0.01 0.0
0.46 0.01 0.0
0.47000000000000003 0.01 0.0
0.48 0.01 0.0
0.49 0.01 0.0
0.5 0.01 0.0
0.51 0.01 0.0
0.52 0.01 0.0
0.53 0.01 0.0
0.54 0.01 0.0
0.55 0.01 0.0
0.56 0.01 0.0
0.5700000000000001 0.01 0.0
0.58 0.01 0.0
0.59 0.01 0.0
0.6 0.01 0.0
0.61 0.01 0.0
0.62 0.01 0.0
0.63 0.01 0.0
0.64 0.01 0.0
0.65 0.01 0.0
0.66 0.01 0.0
0.67 0.01 0.0
0.68 0.01 0.0
0.6900000000000001 0.01 0.0
0.7000000000000001 0.01 0.0
0.71 0.01 0.0
0.72 0.01 0.0
0.73 0.01 0.0
0.74 0.01 0.0
0.75 0.01 0.0
0.76 0.01 0.0
0.77 0.01 0.0
0.78 0.01 0.0
0.79 0.01 0.0
0.8 0.01 0.0
0.81 0.01 0.0
0.8200000000000001 0.01 0.0
0.8300000000000001 0.01 0.0
0.84 0.01 0.0
0.85 0.01 0.0
0.86 0.01 0.0
0.87 0.01 0.0
0.88 0.01 0.0
0.89 0.01 0.0
0.9 0.01 0.0
0.91 0.01 0.0
0.92 0.01 0.0
0.93 0.01 0.0
0.9400000000000001 0.01 0.0
0.9500000000000001 0.01 0.0
0.96 0.01 0.0
0.97 0.01 0.0
0.98 0.01 0.0
0.99 0.01 0.0
1.0 0.01 0.0
0.0 0.02 0.0
0.01 0.02 0.0
0.02 0.02 0.0
0.03 0.02 0.0
0.04 0.02 0.0
0.05 0.02 0.0
0.06 0.02 0.0
0.07 0.02 0.0
0.08 0.02 0.0
0.09 0.02 0.0
0.1 0.02 0.0
0.11 0.02 0.0
0.12 0.02 0.0
0.13 0.02 0.0
0.14 0.02 0.0
0.15 0.02 0.0
0.16 0.02 0.0
0.17 0.02 0.0
0.18 0.02 0.0
0.19 0.02 0.0
0.2 0.02 0.0
0.21 0.02 0.0
0.22 0.02 0.0
0.23 0.02 0.0
0.24 0.02 0.0
0.25 0.02 0.0
0.26 0.02 0.0
0.27 0.02 0.0
0.28 0.02 0.0
0.29 0.02 0.0
0.3 0.02 0.0
0.31 0.02 0.0
0.32 0.02 0.0
0.33 0.02 0.0
0.34 0.02 0.0
0.35000000000000003 0.02 0.0
0.36 0.02 0.0
0.37 0.02 0.0
0.38 0.02 0.0
0.39 0.02 0.0
0.4 0.02 0.0
0.41000000000000003 0.02 0.0
0.42 0.02 0.0
0.43 0.02 0.0
0.44 0.02 0.0
0.45 0.02 0.0
0.46 0.02 0.0
0.47000000000000003 0.02 0.0
0.48 0.02 0.0
0.49 0.02 0.0
0.5 0.02 0.0
0.51 0.02 0.0
0.52 0.02 0.0
0.53 0.02 0.0
0.54 0.02 0.0
0.55 0.02 0.0
0.56 0.02 0.0
0.5700000000000001 0.02 0.0
0.58 0.02 0.0
0.59 0.02 0.0
0.6 0.02 0.0
0.61 0.02 0.0
0.62 0.02 0.0
0.63 0.02 0.0
0.64 0.02 0.0
0.65 0.02 0.0
0.66 0.02 0.0
0.67 0.02 0.0
0.68 0.02 0.0
0.6900000000000001 0.02 0.0
0.7000000000000001 0.02 0.0
0.71 0.02 0.0
0.72 0.02 0.0
0.73 0.02 0.0
0.74 0.02 0.0
0.75 0.02 0.0
0.76 0.02 0.0
0.77 0.02 0.0
0.78 0.02 0.0
0.79 0.02 0.0
0.8 0.02 0.0
0.81 0.02 0.0
0.8200000000000001 0.02 0.0
0.8300000000000001 0.02 0.0
0.84 0.02 0.0
0.85 0.02 0.0
0.86 0.02 0.0
0.87 0.02 0.0
0.88 0.02 0.0
0.89 0.02 0.0
0.9 0.02 0.0
0.91 0.02 0.0
0.92 0.02 0.0
0.93 0.02 0.0
0.9400000000000001 0.02 0.0
0.9500000000000001 0.02 0.0
0.96 0.02 0.0
0.97 0.02 0.0
0.98 0.02 0.0
0.99 0.02 0.0
1.0 0.02 0.0
0.0 0.03 0.0
0.01 0.03 0.0
0.02 0.03 0.0
0.03 0.03 0.0
0.04 0.03 0.0
0.05 0.03 0.0
0.06 0.03 0.0
0.07 0.03 0.0
0.08 0.03 0.0
0.09 0.03 0.0
0.1 0.03 0.0
0.11 0.03 0.0
0.12 0.03 0.0
0.13 0.03 0.0
0.14 0.03 0.0
0.15 0.03 0.0
0.16 0.03 0.0
0.17 0.03 0.0
0.18 0.03 0.0
0.19 0.03 0.0
0.2 0.03 0.0
0.21 0.03 0.0
0.22 0.03 0.0
0.23 0.03 0.0
0.24 0.03 0.0
0.25 0.03 0.0
0.26 0.03 0.0
0.27 0.03 0.0
0.28 0.03 0.0
0.29 0.03 0.0
0.3 0.03 0.0
0.31 0.03 0.0
0.32 0.03 0.0
0.33 0.03 0.0
0.34 0.03 0.0
0.35000000000000003 0.03 0.0
0.36 0.03 0.0
0.37 0.03 0.0
0.38 0.03 0.0
0.39 0.03 0.0
0.4 0.03 0.0
0.41000000000000003 0.03 0.0
0.42 0.03 0.0
0.43 0.03 0.0
0.44 0.03 0.0
0.45 0.03 0.0
0.46 0.03 0.0
0.47000000000000003 0.03 0.0
0.48 0.03 0.0
0.49 0.03 0.0
0.5 0.03 0.0
0.51 0.03 0.0
0.52 0.03 0.0
0.53 0.03 0.0
0.54 0.03 0.0
0.55 0.03 0.0
0.56 0.03 0.0
0.5700000000000001 0.03 0.0
0.58 0.03 0.0
0.59 0.03 0.0
0.6 0.03 0.0
0.61 0.03 0.0
0.62 0.03 0.0
0.63 0.03 0.0
0.64 0.03 0.0
0.65 0.03 0.0
0.66 0.03 0.0
0.67 0.03 0.0
0.68 0.03 0.0
0.6900000000000001 0.03 0.0
0.7000000000000001 0.03 0.0
0.71 0.03 0.0
0.72 0.03 0.0
0.73 0.03 0.0
0.74 0.03 0.0
0.75 0.03 0.0
0.76 0.03 0.0
0.77 0.03 0.0
0.78 0.03 0.0
0.79 0.03 0.0
0.8 0.03 0.0
0.81 0.03 0.0
0.8200000000000001 0.03 0.0
0.8300000000000001 0.03 0.0
0.84 0.03 0.0
0.85 0.03 0.0
0.86 0.03 0.0
0.87 0.03 0.0
0.88 0.03 0.0
0.89 0.03 0.0
0.9 0.03 0.0
0.91 0.03 0.0
0.92 0.03 0.0
0.93 0.03 0.0
0.9400000000000001 0.03 0.0
0.9500000000000001 0.03 0.0
0.96 0.03 0.0
0.97 0.03 0.0
0.98 0.03 0.0
0.99 0.03 0.0
1.0 0.03 0.0
0.0 0.04 0.0
0.01 0.04 0.0
0.02 0.04 0.0
0.03 0.04 0.0
0.04 0.04 0.0
0.05 0.04 0.0
0.06 0.04 0.0
0.07 0.04 0.0
0.08 0.04 0.0
0.09 0.04 0.0
0.1 0.04 0.0
0.11 0.04 0.0
0.12 0.04 0.0
0.13 0.04 0.0
0.14 0.04 0.0
0.15 0.04 0.0
0.16 0.04 0.0
0.17 0.04 0.0
0.18 0.04 0.0
0.19 0.04 0.0
0.2 0.04 0.0
0.21 0.04 0.0
0.22 0.04 0.0
0.23 0.04 0.0
0.24 0.04 0.0
0.25 0.04 0.0
0.26 0.04 0.0
0.27 0.04 0.0
0.28 0.04 0.0
0.29 0.04 0.0
0.3 0.04 0.0
0.31 0.04 0.0
0.32 0.04 0.0
0.33 0.04 0.0
0.34 0.04 0.0
0.35000000000000003 0.04 0.0
0.36 0.04 0.0
0.37 0.04 0.0
0.38 0.04 0.0
0.39 0.04 0.0
0.4 0.04 0.0
0.41000000000000003 0.04 0.0
0.42 0.04 0.0
0.43 0.04 0.0
0.44 0.04 0.0
0.45 0.04 0.0
0.46 0.04 0.0
0.47000000000000003 0.04 0.0
0.48 0.04 0.0
0.49 0.04 0.0
0.5 0.04 0.0
0.51 0.04 0.0
0.52 0.04 0.0
0.53 0.04 0.0
0.54 0.04 0.0
0.55 0.04 0.0
0.56 0.04 0.0
0.5700000000000001 0.04 0.0
0.58 0.04 0.0
0.59 0.04 0.0
0.6 0.04 0.0
0.61 0.04 0.0
0.62 0.04 0.0
0.63 0.04 0.0
0.64 0.04 0.0
0.65 0.04 0.0
0.66 0.04 0.0
0.67 0.04 0.0
0.68 0.04 0.0
0.6900000000000001 0.04 0.0
0.7000000000000001 0.04 0.0
0.71 0.04 0.0
0.72 0.04 0.0
0.73 0.04 0.0
0.74 0.04 0.0
0.75 0.04 0.0
0.76 0.04 0.0
0.77 0.04 0.0
0.78 0.04 0.0
0.79 0.04 0.0
0.8 0.04 0.0
0.81 0.04 0.0
0.8200000000000001 0.04 0.0
0.8300000000000001 0.04 0.0
0.84 0.04 0.0
0.85 0.04 0.0
0.86 0.04 0.0
0.87 0.04 0.0
0.88 0.04 0.0
0.89 0.04 0.0
0.9 0.04 0.0
0.91 0.04 0.0
0.92 0.04 0.0
0.93 0.04 0.0
0.9400000000000001 0.04 0.0
0.9500000000000001 0.04 0.0
0.96 0.04 0.0
0.97 0.04 0.0
0.98 0.04 0.0
0.99 0.04 0.0
1.0 0.04 0.0
0.0 0.05 0.0
0.01 0.05 0.0
0.02 0.05 0.0
0.03 0.05 0.0
0.04 0.05 0.0
0.05 0.05 0.0
0.06 0.05 0.0
0.07 0.05 0.0
0.08 0.05 0.0
0.09 0.05 0.0
0.1 0.05 0.0
0.11 0.05 0.0
0.12 0.05 0.0
0.13 0.05 0.0
0.14 0.05 0.0
0.15 0.05 0.0
0.16 0.05 0.0
0.17 0.05 0.0
0.18 0.05 0.0
0.19 0.05 0.0
0.2 0.05 0.0
0.21 0.05 0.0
0.22 0.05 0.0
0.23 0.05 0.0
0.24 0.05 0.0
0.25 0.05 0.0
0.26 0.05 0.0
0.27 0.05 0.0
0.28 0.05 0.0
0.29 0.05 0.0
0.3 0.05 0.0
0.31 0.05 0.0
0.32 0.05 0.0
0.33 0.05 0.0
0.34 0.05 0.0
0.35000000000000003 0.05 0.0
0.36 0.05 0.0
0.37 0.05 0.0
0.38 0.05 0.0
0.39 0.05 0.0
0.4 0.05 0.0
0.41000000000000003 0.05 0.0
0.42 0.05 0.0
0.43 0.05 0.0
0.44 0.05 0.0
0.45 0.05 0.0
0.46 0.05 0.0
0.47000000000000003 0.05 0.0
0.48 0.05 0.0
0.49 0.05 0.0
0.5 0.05 0.0
0.51 0.05 0.0
0.52 0.05 0.0
0.53 0.05 0.0
0.54 0.05 0.0
0.55 0.05 0.0
0.56 0.05 0.0
0.5700000000000001 0.05 0.0
0.58 0.05 0.0
0.59 0.05 0.0
0.6 0.05 0.0
0.61 0.05 0.0
0.62 0.05 0.0
0.63 0.05 0.0
0.64 0.05 0.0
0.65 0.05 0.0
0.66 0.05 0.0
0.67 0.05 0.0
0.68 0.05 0.0
0.6900000000000001 0.05 0.0
0.7000000000000001 0.05 0.0
0.71 0.05 0.0
0.72 0.05 0.0
0.73 0.05 0.0
0.74 0.05 0.0
0.75 0.05 0.0
0.76 0.05 0.0
0.77 0.05 0.0
0.78 0.05 0.0
0.79 0.05 0.0
0.8 0.05 0.0
0.81 0.05 0.0
0.8200000000000001 0.05 0.0
0.8300000000000001 0.05 0.0
0.84 0.05 0.0
0.85 0.05 0.0
0.86 0.05 0.0
0.87 0.05 0.0
0.88 0.05 0.0
0.89 0.05 0.0
0.9 0.05 0.0
0.91 0.05 0.0
0.92 0.05 0.0
0.93 0.05 0.0
0.9400000000000001 0.05 0.0
0.9500000000000001 0.05 0.0
0.96 0.05 0.0
0.97 0.05 0.0
0.98 0.05 0.0
0.99 0.05 0.0
1.0 0.05 0.0
0.0 0.06 0.0
0.01 0.06 0.0
0.02 0.06 0.0
0.03 0.06 0.0
0.04 0.06 0.0
0.05 0.06 0.0
0.06 0.06 0.0
0.07 0.06 0.0
0.08 0.06 0.0
0.09 0.06 0.0
0.1 0.06 0.0
0.11 0.06 0.0
0.12 0.06 0.0
0.13 0.06 0.0
0.14 0.06 0.0
0.15 0.06 0.0
0.16 0.06 0.0
0.17 0.06 0.0
0.18 0.06 0.0
0.19 0.06 0.0
0.2 0.06 0.0
0.21 0.06 0.0
0.22 0.06 0.0
0.23 0.06 0.0
0.24 0.06 0.0
0.25 0.06 0.0
0.26 0.06 0.0
0.27 0.06 0.0
0.28 0.06 0.0
0.29 0.06 0.0
0.3 0.06 0.0
0.31 0.06 0.0
0.32 0.06 0.0
0.33 0.06 0.0
0.34 0.06 0.0
0.35000000000000003 0.06 0.0
0.36 0.06 0.0
0.37 0.06 0.0
0.38 0.06 0.0
0.39 0.06 0.0
0.4 0.06 0.0
0.41000000000000003 0.06 0.0
0.42 0.06 0.0
0.43 0.06 0.0
0.44 0.06 0.0
0.45 0.06 0.0
0.46 0.06 0.0
[...]
POINT_DATA  10201
FIELD  FlowField  5
Density    1 10201  double
1.0000000000000029
1.000000000000003
1.0000000000000036
1.0000000000000044
1.0000000000000053
1.0000000000000067
1.0000000000000073
1.0000000000000073
1.000000000000007
1.0000000000000064
1.0000000000000056
1.0000000000000044
1.000000000000003
1.0000000000000022
1.0000000000000013
1.0000000000000007
1.0
1.0
1.0
1.0
1.0
1.0
1.0
1.0
1.0
1.0
1.0
1.0
1.0
1.0
1.0
1.0
1.0
1.0
1.0
1.0
1.0
1.0
1.0
1.0
1.0
1.0
1.0
1.0
1.0
1.0
1.0
1.0
1.0
1.0
1.0
1.0
1.0
1.0
1.0
1.0
1.0
1.0
1.0
1.0
1.0
1.0
1.0
1.0
1.0
1.0
1.0
1.0
1.0
1.0
1.0
1.0
1.0
1.0
1.0
1.0
1.0
1.0
1.0
1.0
1.0
1.0
1.0
1.0
1.0
1.0
1.0
1.0
1.0
1.0
1.0
1.0
1.0
1.0
1.0
1.0
1.0
1.0
1.0
1.0
1.0
1.0000000000000093
1.00000000000001
1.0000000000000118
1.0000000000000147
1.000000000000018
1.000000000000021
1.0000000000000233
1.0000000000000238
1.0000000000000233
1.0000000000000218
1.000000000000019
1.0000000000000155
1.0000000000000124
1.0000000000000093
1.0000000000000067
1.0000000000000042
1.0000000000000024
1.0000000000000013
1.0000000000000007
1.0000000000000002
1.0
1.0
1.0
1.0
1.0
1.0
1.0
1.0
1.0
1.0
1.0
1.0
1.0
1.0
1.0
1.0
1.0
1.0
1.0
1.0
1.0
1.0
1.0
1.0
1.0
1.0
1.0
1.0
1.0
1.0
1.0
1.0
1.0
1.0
1.0
1.0
1.0
1.0
1.0
1.0
1.0
1.0
1.0
1.0
1.0
1.0
1.0
1.0
1.0
1.0
1.0
1.0
1.0
1.0
1.0
1.0
1.0
1.0
1.0
1.0
1.0
1.0
1.0
1.0
1.0
1.0
1.0
1.0
1.0
1.0
1.0
1.0
1.0
1.0
1.0
1.0
1.0
1.0
1.0
1.0
1.0
1.0000000000000482
1.0000000000000524
1.000000000000063
1.0000000000000782
1.0000000000000955
1.000000000000112
1.0000000000001241
1.0000000000001308
1.0000000000001308
1.0000000000001246
1.0000000000001126
1.0000000000000966
1.0000000000000786
1.0000000000000608
1.0000000000000449
1.000000000000031
1.0000000000000204
1.0000000000000124
1.000000000000007
1.0000000000000036
1.0000000000000018
1.0000000000000007
1.0000000000000002
1.0
1.0
1.0
1.0
1.0
1.0
1.0
1.0
1.0
1.0
1.0
1.0
1.0
1.0
1.0
1.0
1.0
1.0
1.0
1.0
1.0
1.0
1.0
1.0
1.0
1.0
1.0
1.0
1.0
1.0
1.0
1.0
1.0
1.0
1.0
1.0
1.0
1.0
1.0
1.0
1.0
1.0
1.0
1.0
1.0
1.0
1.0
1.0
1.0
1.0
1.0
1.0
1.0
1.0
1.0
1.0
1.0
1.0
1.0
1.0
1.0
1.0
1.0
1.0
1.0
1.0
1.0
1.0
1.0
1.0
1.0
1.0
1.0
1.0
1.0
1.0
1.0
1.0
1.0000000000002376
1.0000000000002585
1.000000000000315
1.0000000000003957
1.000000000000489
1.0000000000005802
1.000000000000656
1.0000000000007059
1.000000000000722
1.0000000000007019
1.0000000000006488
1.0000000000005707
1.000000000000477
1.0000000000003786
1.000000000000285
1.0000000000002034
1.0000000000001374
1.0000000000000875
1.0000000000000526
1.0000000000000298
1.0000000000000155
1.0000000000000075
1.0000000000000033
1.0000000000000013
1.0000000000000004
1.0
1.0
1.0
1.0
1.0
1.0
1.0
1.0
1.0
1.0
1.0
1.0
1.0
1.0
1.0
1.0
1.0
1.0
1.0
1.0
1.0
1.0
1.0
1.0
1.0
1.0
1.0
1.0
1.0
1.0
1.0
1.0
1.0
1.0
1.0
1.0
1.0
1.0
1.0
1.0
1.0
1.0
1.0
1.0
1.0
1.0
1.0
1.0
1.0
1.0
1.0
1.0
1.0
1.0
1.0
1.0
1.0
1.0
1.0
1.0
1.0
1.0
1.0
1.0
1.0
1.0
1.0
1.0
1.0
1.0
1.0
1.0
1.0
1.0
1.0
1.0
1.0000000000011318
1.0000000000012355
1.0000000000015228
1.0000000000019438
1.000000000002442
1.00000000000295
1.0000000000034008
1.0000000000037335
1.0000000000039
1.000000000003877
1.000000000003668
1.0000000000033027
1.000000000002828
1.0000000000023004
1.0000000000017766
1.0000000000013012
1.0000000000009022
1.000000000000591
1.000000000000366
1.0000000000002138
1.0000000000001172
1.00000000000006
1.0000000000000289
1.0000000000000129
1.000000000000005
1.0000000000000018
1.0000000000000004
1.0
1.0
1.0
1.0
1.0
1.0
1.0
1.0
1.0
1.0
1.0
1.0
1.0
1.0
1.0
1.0
1.0
1.0
1.0
1.0
1.0
1.0
1.0
1.0
1.0
1.0
1.0
1.0
1.0
1.0
1.0
1.0
1.0
1.0
1.0
1.0
1.0
1.0
1.0
1.0
1.0
1.0
1.0
1.0
1.0
1.0
1.0
1.0
1.0
1.0
1.0
1.0
1.0
1.0
1.0
1.0
1.0
1.0
1.0
1.0
1.0
1.0
1.0
1.0
1.0
1.0
1.0
1.0
1.0
1.0
1.0
1.0
1.0
1.0
1.000000000005274
1.0000000000057896
1.0000000000072262
1.000000000009369
1.000000000011973
1.0000000000147367
1.000000000017327
1.0000000000194162
1.0000000000207248
1.0000000000210703
1.0000000000204026
1.000000000018808
1.0000000000164948
1.000000000013752
1.0000000000108882
1.0000000000081763
1.0000000000058156
1.000000000003912
1.0000000000024856
1.0000000000014893
1.0000000000008396
1.0000000000004448
1.0000000000002212
1.0000000000001026
1.0000000000000444
1.000000000000018
1.0000000000000064
1.000000000000002
1.0000000000000004
1.0
1.0
1.0
1.0
1.0
1.0
1.0
1.0
1.0
1.0
1.0
1.0
1.0
1.0
1.0
1.0
1.0
1.0
1.0
1.0
1.0
1.0
1.0
1.0
1.0
1.0
1.0
1.0
1.0
1.0
1.0
1.0
1.0
1.0
1.0
1.0
1.0
1.0
1.0
1.0
1.0
1.0
1.0
1.0
1.0
1.0
1.0
1.0
1.0
1.0
1.0
1.0
1.0
1.0
1.0
1.0
1.0
1.0
1.0
1.0
1.0
1.0
1.0
1.0
1.0
1.0
1.0
1.0
1.0
1.0
1.0
1.0
1.0000000000241407
1.0000000000266493
1.0000000000336966
1.0000000000443845
1.0000000000577156
1.0000000000723825
1.0000000000868228
1.000000000099357
1.0000000001084053
1.0000000001127463
1.0000000001117488
1.0000000001055032
1.0000000000948104
1.0000000000810256
1.0000000000657787
1.0000000000506626
1.0000000000369682
1.0000000000255191
1.0000000000166382
1.000000000010229
1.0000000000059208
1.0000000000032214
1.0000000000016445
1.0000000000007865
1.0000000000003522
1.0000000000001472
1.000000000000057
1.0000000000000204
1.0000000000000064
1.0000000000000018
1.0000000000000004
1.0
1.0
1.0
1.0
1.0
1.0
1.0
1.0
1.0
1.0
1.0
1.0
1.0
1.0
1.0
1.0
1.0
1.0
1.0
1.0
1.0
1.0
1.0
1.0
1.0
1.0
1.0
1.0
1.0
1.0
1.0
1.0
1.0
1.0
1.0
1.0
1.0
1.0
1.0
1.0
1.0
1.0
1.0
1.0
1.0
1.0
1.0
1.0
1.0
1.0
1.0
1.0
1.0
1.0
1.0
1.0
1.0
1.0
1.0
1.0
1.0
1.0
1.0
1.0
1.0
1.0
1.0
1.0
1.0
1.0
1.0000000001085532
1.0000000001205174
1.0000000001544038
1.0000000002066773
1.0000000002735445
1.000000000349631
1.0000000004279355
1.000000000500241
1.0000000005580463
1.000000000593881
1.0000000006026952
1.000000000582929
1.0000000005369212
1.0000000004704925
1.000000000391775
1.00000000030959
1.000000000231832
1.000000000164257
1.0000000001099325
1.0000000000693827
1.0000000000412257
1.0000000000230218
1.0000000000120628
1.0000000000059215
1.0000000000027194
1.0000000000011666
1.0000000000004667
1.0000000000001736
1.00000000000006
1.0000000000000193
1.0000000000000056
1.0000000000000013
1.0000000000000002
1.0
1.0
1.0
1.0
1.0
1.0
1.0
1.0
1.0
1.0
1.0
1.0
1.0
1.0
1.0
1.0
1.0
1.0
1.0
1.0
1.0
1.0
1.0
1.0
1.0
1.0
1.0
1.0
1.0
1.0
1.0
1.0
1.0
1.0
1.0
1.0
1.0
1.0
1.0
1.0
1.0
1.0
1.0
1.0
1.0
1.0
1.0
1.0
1.0
1.0
1.0
1.0
1.0
1.0
1.0
1.0
1.0
1.0
1.0
1.0
1.0
1.0
1.0
1.0
1.0
1.0
1.0
1.0
1.00000000047948
1.0000000005354404
1.0000000006952199
1.0000000009458339
1.0000000012743682
1.0000000016603634
1.0000000020741315
1.0000000024773021
1.000000002826305
1.0000000030785072
1.000000003199768
1.0000000031714635
1.000000002994926
1.0000000026917764
1.0000000022997804
1.000000001865223
1.0000000014339014
1.0000000010431647
1.0000000007169632
1.0000000004647223
1.0000000002835783
1.0000000001626173
1.0000000000874827
1.000000000044078
1.0000000000207674
1.0000000000091371
1.0000000000037494
1.0000000000014335
1.00000000000051
1.0000000000001688
1.0000000000000515
1.0000000000000142
1.0000000000000033
1.0000000000000007
1.0
1.0
1.0
1.0
1.0
1.0
1.0
1.0
1.0
1.0
1.0
1.0
1.0
1.0
1.0
1.0
1.0
1.0
1.0
1.0
1.0
1.0
1.0
1.0
1.0
1.0
1.0
1.0
1.0
1.0
1.0
1.0
1.0
1.0
1.0
1.0
1.0
1.0
1.0
1.0
1.0
1.0
1.0
1.0
1.0
1.0
1.0
1.0
1.0
1.0
1.0
1.0
1.0
1.0
1.0
1.0
1.0
1.0
1.0
1.0
1.0
1.0
1.0
1.0
1.0
1.0
1.0
1.0000000020800779
1.0000000023367113
1.00000000307531
1.0000000042529542
1.0000000058340852
1.0000000077496418
1.0000000098825312
1.0000000120629124
1.000000014078269
1.0000000156991795
1.0000000167168868
1.000000016984212
1.0000000164487781
1.000000015168153
1.0000000133010454
1.000000011075756
1.0000000087442111
1.0000000065343964
1.000000004613901
1.000000003072716
1.0000000019264883
1.000000001135
1.0000000006272178
1.000000000324539
1.00000000015697
1.0000000000708615
1.0000000000298168
1.0000000000116813
1.0000000000042575
1.0000000000014426
1.0000000000004543
1.0000000000001323
1.0000000000000355
1.0000000000000089
1.0000000000000018
1.0000000000000002
1.0
1.0
1.0
1.0
1.0
1.0
1.0
1.0
1.0
1.0
1.0
1.0
1.0
1.0
1.0
1.0
1.0
1.0
1.0
1.0
1.0
1.0
1.0
1.0
1.0
1.0
1.0
1.0
1.0
1.0
1.0
1.0
1.0
1.0
1.0
1.0
1.0
1.0
1.0
1.0
1.0
1.0
1.0
1.0
1.0
1.0
1.0
1.0
1.0
1.0
1.0
1.0
1.0
1.0
1.0
1.0
1.0
1.0
1.0
1.0
1.0
1.0
1.0
1.0
1.0
1.000000008861682
1.0000000100153703
1.0000000133619453
1.000000018784919
1.0000000262382271
1.000000035539092
1.0000000462729222
1.0000000577359658
1.0000000689453565
1.0000000787320522
1.000000085911042
1.000000089497825
1.0000000889186471
1.0000000841538388
1.0000000757661058
1.0000000647970164
1.0000000525555242
1.0000000403572207
1.0000000292873434
1.0000000200484518
1.0000000129208535
1.000000007824773
1.000000004444161
1.0000000023628368
1.0000000011738934
1.0000000005440715
1.0000000002348948
1.0000000000943483
1.0000000000352227
1.0000000000122145
1.0000000000039333
1.000000000001176
1.0000000000003266
1.0000000000000842
1.00000000000002
1.0000000000000042
1.0000000000000007
1.0
1.0
1.0
1.0
1.0
1.0
1.0
1.0
1.0
1.0
1.0
1.0
1.0
1.0
1.0
1.0
1.0
1.0
1.0
1.0
1.0
1.0
1.0
1.0
1.0
1.0
1.0
1.0
1.0
1.0
1.0
1.0
1.0
1.0
1.0
1.0
1.0
1.0
1.0
1.0
1.0
1.0
1.0
1.0
1.0
1.0
1.0
1.0
1.0
1.0
1.0
1.0
1.0
1.0
1.0
1.0
1.0
1.0
1.0
1.0
1.0
1.0
1.0
1.0
1.0000000370710336
1.0000000421539583
1.0000000570135068
1.0000000814812702
1.000000115890582
1.0000001600782804
1.0000002128427017
1.0000002715200047
1.0000003318349502
1.0000003881479211
1.0000004341414055
1.0000004638658497
1.0000004729281344
1.0000004595094854
1.0000004248992218
1.0000003733428529
1.0000003112036917
1.0000002456587935
1.0000001833007335
1.0000001290329923
1.0000000855223443
1.000000053263201
1.000000031108006
1.00000001700429
1.0000000086828393
1.000000004134344
1.000000001832682
1.0000000007552483
1.0000000002890146
1.00000000010262
1.0000000000337952
1.000000000010323
1.0000000000029265
1.0000000000007707
1.0000000000001883
1.0000000000000426
1.0000000000000087
1.0000000000000013
1.0000000000000002
1.0
1.0
1.0
1.0
1.0
1.0
1.0
1.0
1.0
1.0
1.0
1.0
1.0
1.0
1.0
1.0
1.0
1.0
1.0
1.0
1.0
1.0
1.0
1.0
1.0
1.0
1.0
1.0
1.0
1.0
1.0
1.0
1.0
1.0
1.0
1.0
1.0
1.0
1.0
1.0
1.0
1.0
1.0
1.0
1.0
1.0
1.0
1.0
1.0
1.0
1.0
1.0
1.0
1.0
1.0
1.0
1.0
1.0
1.0
1.0
1.0
1.0
1.0000001522673396
1.000000174210244
1.0000002388536635
1.0000003469946708
1.0000005025485939
1.0000007079606554
1.000000961396496
1.0000012541511438
1.0000015690150743
1.0000018803449227
1.0000021563733958
1.0000023637772086
1.000002473785839
1.000002468405086
1.000002344992572
1.0000021176556106
1.0000018147788872
1.0000014732043434
1.0000011306948822
1.0000008188546394
1.0000005584139078
1.0000003578387084
1.0000002150258802
1.0000001209114975
1.0000000634957353
1.0000000310807056
1.0000000141559202
1.0000000059896712
1.0000000023513302
1.000000000855538
1.0000000002883525
1.0000000000900156
1.0000000000260383
1.0000000000069864
1.0000000000017415
1.000000000000404
1.000000000000087
1.000000000000017
1.000000000000003
1.0000000000000004
1.0
1.0
1.0
1.0
1.0
1.0
1.0
1.0
1.0
1.0
1.0
1.0
1.0
1.0
1.0
1.0
1.0
1.0
1.0
1.0
1.0
1.0
1.0
1.0
1.0
1.0
1.0
1.0
1.0
1.0
1.0
1.0
1.0
1.0
1.0
1.0
1.0
1.0
1.0
1.0
1.0
1.0
1.0
1.0
1.0
1.0
1.0
1.0
1.0
1.0
1.0
1.0
1.0
1.0
1.0
1.0
1.0
1.0
1.0
1.0
1.0
1.000000614083094
1.0000007068801076
1.0000009823355596
1.0000014504153896
1.000002138872557
1.0000030731146645
1.0000042627290142
1.0000056873610537
1.000007285066853
1.0000089470800255
1.0000105228505083
1.000011837488791
1.000012720317537
1.0000130390041622
1.0000127305503912
1.0000118196459273
1.0000104175090763
1.0000087000859768
1.0000068712473396
1.0000051216802928
1.0000035953067525
1.000002371744619
1.000001467109212
1.0000008491389731
1.0000004588765157
1.0000002310620424
1.0000001082049597
1.0000000470434203
1.000000018959828
1.000000007075179
1.0000000024426352
1.000000000779924
1.0000000002303628
1.0000000000629952
1.0000000000159739
1.000000000003764
1.000000000000826
1.0000000000001692
1.0000000000000322
1.0000000000000056
1.0000000000000007
1.0
1.0
1.0
1.0
1.0
1.0
1.0
1.0
1.0
1.0
1.0
1.0
1.0
1.0
1.0
1.0
1.0
1.0
1.0
1.0
1.0
1.0
1.0
1.0
1.0
1.0
1.0
1.0
1.0
1.0
1.0
1.0
1.0
1.0
1.0
1.0
1.0
1.0
1.0
1.0
1.0
1.0
1.0
1.0
1.0
1.0
1.0
1.0
1.0
1.0
1.0
1.0
1.0
1.0
1.0
1.0
1.0
1.0
1.0
1.0
1.000002431762421
1.0000028161220504
1.0000039655320347
1.0000059491715314
1.0000089314891616
1.0000130879755915
1.0000185450285974
1.0000253094810805
1.000033199205715
1.0000417930734977
1.0000504227042404
1.0000582251721957
1.000064262332541
1.0000676906913486
1.0000679442657807
1.0000648794124112
1.0000588330469649
1.000050568090931
1.0000411154568227
1.0000315570649125
1.000022814230736
1.0000155011320078
1.0000098761482337
1.0000058870386515
1.0000032758487973
1.0000016979727289
1.000000818139682
1.000000365757498
1.0000001514612942
1.0000000580163564
1.0000000205350459
1.0000000067125876
1.000000002026388
1.000000000565274
1.0000000001459062
1.0000000000349196
1.0000000000077705
1.0000000000016132
1.0000000000003135
1.0000000000000568
1.0000000000000093
1.000000000000001
1.0
1.0
1.0
1.0
1.0
1.0
1.0
1.0
1.0
1.0
1.0
1.0
1.0
1.0
1.0
1.0
1.0
1.0
1.0
1.0
1.0
1.0
1.0
1.0
1.0
1.0
1.0
1.0
1.0
1.0
1.0
1.0
1.0
1.0
1.0
1.0
1.0
1.0
1.0
1.0
1.0
1.0
1.0
1.0
1.0
1.0
1.0
1.0
1.0
1.0
1.0
1.0
1.0
1.0
1.0
1.0
1.0
1.0
1.0
1.0000094569827809
1.0000110158466546
1.000015711226398
1.0000239388242047
1.0000365792153936
1.0000546628329885
1.0000791207428361
1.0001104592995564
1.0001483915711311
1.0001914997747068
1.0002370415557564
1.0002810239992888
1.0003186289615726
1.0003449759802001
1.000356089533899
1.0003498316035535
1.0003265146911002
1.0002889700387514
1.0002420025765577
1.0001913670071256
1.0001425664799097
1.0000998312352465
1.0000655532259597
1.000040269619426
1.000023088959591
1.0000123278307242
1.0000061161405978
1.0000028137831756
1.0000011981880474
1.0000004715125286
1.0000001712601692
1.0000000573671102
1.0000000177170791
1.0000000050465814
1.0000000013272317
1.0000000003228893
1.0000000000728595
1.0000000000153024
1.0000000000030036
1.000000000000553
1.0000000000000955
1.000000000000015
1.000000000000002
1.0000000000000002
1.0
1.0
1.0
1.0
1.0
1.0
1.0
1.0
1.0
1.0
1.0
1.0
1.0
1.0
1.0
1.0
1.0
1.0
1.0
1.0
1.0
1.0
1.0
1.0
1.0
1.0
1.0
1.0
1.0
1.0
1.0
1.0
1.0
1.0
1.0
1.0
1.0
1.0
1.0
1.0
1.0
1.0
1.0
1.0
1.0
1.0
1.0
1.0
1.0
1.0
1.0
1.0
1.0
1.0
1.0
1.0
1.0
1.0000361266966762
1.0000423158306837
1.0000610862640906
1.0000944698712089
1.0001468575805839
1.0002237370304998
1.000330739783629
1.0004722464484128
1.0006495974047382
1.0008591672431373
1.0010908066663577
1.0013273243507244
1.0015456263101274
1.0017197495537769
1.0018254511367164
1.0018453945268202
1.0017735193526824
1.001617178251368
1.0013961536639469
1.0011386110874185
1.0008750779821447
1.0006322331233093
1.0004283356493557
1.0002714496075884
1.0001605207251436
1.0000883643327918
1.000045178662506
1.0000214072376359
1.0000093819541451
1.0000037963544541
1.0000014162860462
1.0000004866213676
1.0000001539051548
1.0000000448096777
1.000000012019831
1.0000000029753626
1.0000000006813692
1.0000000001448406
1.0000000000286988
1.0000000000053253
1.00000000000093
1.0000000000001532
1.0000000000000235
1.000000000000003
1.0000000000000004
1.0
1.0
1.0
1.0
1.0
1.0
1.0
1.0
1.0
1.0
1.0
1.0
1.0
1.0
1.0
1.0
1.0
1.0
1.0
1.0
1.0
1.0
1.0
1.0
1.0
1.0
1.0
1.0
1.0
1.0
1.0
1.0
1.0
1.0
1.0
1.0
1.0
1.0
1.0
1.0
1.0
1.0
1.0
1.0
1.0
1.0
1.0
1.0
1.0
1.0
1.0
1.0
1.0
1.0
1.0
1.0
1.0001356069908445
1.0001596504068488
1.0002330300262483
1.0003653979459322
1.0005773789397678
1.0008960446537118
1.001351533063192
1.0019714009969682
1.0027725048800493
1.0037512111427787
1.0048740838524917
1.006072358217387
1.0072436786999084
1.008263019657434
1.0090020546364435
1.0093534363968812
1.0092542561915536
1.0087023845496192
1.0077606260933671
1.006546424755434
1.0052087039653395
1.0038974168881463
1.0027342946077704
1.001793425798727
1.001096780665311
1.0006238362090847
1.000329253702029
1.0001609021443256
1.0000726591691653
1.0000302636036347
1.0000116081559551
1.0000040952273062
1.000001327775676
1.0000003955654067
1.0000001083390908
1.0000000273157477
1.0000000063545809
1.0000000013683605
1.0000000002738632
1.0000000000511904
1.0000000000089844
1.0000000000014884
1.0000000000002336
1.0000000000000349
1.0000000000000049
1.0000000000000004
1.0
1.0
1.0
1.0
1.0
1.0
1.0
1.0
1.0
1.0
1.0
1.0
1.0
1.0
1.0
1.0
1.0
1.0
1.0
1.0
1.0
1.0
1.0
1.0
1.0
1.0
1.0
1.0
1.0
1.0
1.0
1.0
1.0
1.0
1.0
1.0
1.0
1.0
1.0
1.0
1.0
1.0
1.0
1.0
1.0
1.0
1.0
1.0
1.0
1.0
1.0
1.0
1.0
1.0
1.0
1.000500242111239
1.0005915129263792
1.0008714976056658
1.001382833062001
1.002216318063966
1.0034945556776116
1.0053593194551014
1.007947607364758
1.0113548001748147
1.0155892222681842
1.0205298552733324
1.0259037199475718
1.031297174627892
1.0362035651851094
1.0400961381404863
1.0425102512828581
1.0431196738953257
1.0417945736352896
1.0386325022166263
1.0339562289827298
1.0282742957930922
1.022203993155385
1.0163651331870542
1.0112658642175552
1.0072129835481958
1.0042805365610772
1.0023487638108999
1.0011895030170634
1.0005552158112303
1.0002385417467337
1.0000942170013016
1.0000341714853387
1.0000113709303717
1.000003470197038
1.0000009715123932
1.0000002497703289
1.0000000590881437
1.0000000129012334
1.000000002610161
1.0000000004917238
1.000000000086734
1.0000000000144083
1.0000000000022673
1.0000000000003397
1.0000000000000484
1.0000000000000062
1.0000000000000007
1.0
1.0
1.0
1.0
1.0
1.0
1.0
1.0
1.0
1.0
1.0
1.0
1.0
1.0
1.0
1.0
1.0
1.0
1.0
1.0
1.0
1.0
1.0
1.0
1.0
1.0
1.0
1.0
1.0
1.0
1.0
1.0
1.0
1.0
1.0
1.0
1.0
1.0
1.0
1.0
1.0
1.0
1.0
1.0
1.0
1.0
1.0
1.0
1.0
1.0
1.0
1.0
1.0
1.0
1.0018119429132115
1.0021490113408484
1.0031852634192275
1.0050910513367308
1.0082261678357196
1.013066441114875
1.0201335099595252
1.029871324158354
1.0424854189701198
1.0577993786428734
1.0751889068923985
1.093622473791624
1.1117935141134159
1.1282948814153309
1.1417852386415308
1.1511215885181705
1.1554556633153559
1.1543030962531775
1.1475949798350717
1.1357149712686803
1.119514667426294
1.1002873828501007
1.0796725827099614
1.0594677823517413
1.0413502845114144
1.0265590232933717
1.01564406472616
1.0084126322581612
1.0041248822677364
1.0018457110082244
1.0007547117381996
1.0002822590228746
1.0000965805694761
1.0000302366206608
1.000008663633199
1.000002273901027
1.0000005476514848
1.0000001213665548
1.0000000248440493
1.0000000047203585
1.0000000008371552
1.0000000001394387
1.00000000002195
1.0000000000032854
1.0000000000004698
1.000000000000064
1.000000000000008
1.0000000000000009
1.0
1.0
1.0
1.0
1.0
1.0
1.0
1.0
1.0
1.0
1.0
1.0
1.0
1.0
1.0
1.0
1.0
1.0
1.0
1.0
1.0
1.0
1.0
1.0
1.0
1.0
1.0
1.0
1.0
1.0
1.0
1.0
1.0
1.0
1.0
1.0
1.0
1.0
1.0
1.0
1.0
1.0
1.0
1.0
1.0
1.0
1.0
1.0
1.0
1.0
1.0
1.0
1.0
1.0064129426022614
1.0076062312347565
1.011253577523864
1.0179036414536187
1.0286766311748934
1.0448405980562547
1.0674182950034752
1.0967664089663842
1.1323097922279994
1.172551972991441
1.2153305448703517
1.2581795503179398
1.298661285300132
1.334590922447131
1.3641392575392768
1.3858446553651211
1.3985852627003086
1.4015546335147717
1.394269036731056
1.3766219696619602
1.348989969297715
1.3123765309636628
1.2685550825406455
1.2201404621368288
1.1704965362667261
1.123394528808418
1.082400049208713
1.0500935848326853
1.0273941695721622
1.0133778596042131
1.00583401048565
1.0022859045636705
1.000810448721735
1.0002612527795112
1.000076772320046
1.000020601626031
1.000005057731734
1.0000011389484638
1.0000002361235665
1.000000045282531
1.0000000080790783
1.0000000013495975
1.0000000002124962
1.000000000031743
1.0000000000045262
1.000000000000619
1.0000000000000813
1.0000000000000098
1.0000000000000009
1.0
1.0
1.0
1.0
1.0
1.0
1.0
1.0
1.0
1.0
1.0
1.0
1.0
1.0
1.0
1.0
1.0
1.0
1.0
1.0
1.0
1.0
1.0
1.0
1.0
1.0
1.0
1.0
1.0
1.0
1.0
1.0
1.0
1.0
1.0
1.0
1.0
1.0
1.0
1.0
1.0
1.0
1.0
1.0
1.0
1.0
1.0
1.0
1.0
1.0
1.0
1.0
1.0217922655369187
1.0256680243182255
1.0372259884123325
1.0573914880028665
1.0880799414319884
1.130526183655897
1.184464465384322
1.2479262647703475
1.3176710877315008
1.389931388344138
1.4611070897340968
1.5281969457900013
1.5889343599575736
1.6417180072815882
1.6854393359563127
1.7192767028405234
1.7425159639564365
1.7544284094372413
1.7542140389179315