# vtk DataFile Version 3.0 
shock_diffraction_time_series_327_.vtk
ASCII
DATASET UNSTRUCTURED_GRID
POINTS         10201 double
0.0 0.0 0.0
0.01 0.0 0.0
0.02 0.0 0.0
0.03 0.0 0.0
0.04 0.0 0.0
0.05 0.0 0.0
0.06 0.0 0.0
0.07 0.0 0.0
0.08 0.0 0.0
0.09 0.0 0.0
0.1 0.0 0.0
0.11 0.0 0.0
0.12 0.0 0.0
0.13 0.0 0.0
0.14 0.0 0.0
0.15 0.0 0.0
0.16 0.0 0.0
0.17 0.0 0.0
0.18 0.0 0.0
0.19 0.0 0.0
0.2 0.0 0.0
0.21 0.0 0.0
0.22 0.0 0.0
0.23 0.0 0.0
0.24 0.0 0.0
0.25 0.0 0.0
0.26 0.0 0.0
0.27 0.0 0.0
0.28 0.0 0.0
0.29 0.0 0.0
0.3 0.0 0.0
0.31 0.0 0.0
0.32 0.0 0.0
0.33 0.0 0.0
0.34 0.0 0.0
0.35000000000000003 0.0 0.0
0.36 0.0 0.0
0.37 0.0 0.0
0.38 0.0 0.0
0.39 0.0 0.0
0.4 0.0 0.0
0.41000000000000003 0.0 0.0
0.42 0.0 0.0
0.43 0.0 0.0
0.44 0.0 0.0
0.45 0.0 0.0
0.46 0.0 0.0
0.47000000000000003 0.0 0.0
0.48 0.0 0.0
0.49 0.0 0.0
0.5 0.0 0.0
0.51 0.0 0.0
0.52 0.0 0.0
0.53 0.0 0.0
0.54 0.0 0.0
0.55 0.0 0.0
0.56 0.0 0.0
0.5700000000000001 0.0 0.0
0.58 0.0 0.0
0.59 0.0 0.0
0.6 0.0 0.0
0.61 0.0 0.0
0.62 0.0 0.0
0.63 0.0 0.0
0.64 0.0 0.0
0.65 0.0 0.0
0.66 0.0 0.0
0.67 0.0 0.0
0.68 0.0 0.0
0.6900000000000001 0.0 0.0
0.7000000000000001 0.0 0.0
0.71 0.0 0.0
0.72 0.0 0.0
0.73 0.0 0.0
0.74 0.0 0.0
0.75 0.0 0.0
0.76 0.0 0.0
0.77 0.0 0.0
0.78 0.0 0.0
0.79 0.0 0.0
0.8 0.0 0.0
0.81 0.0 0.0
0.8200000000000001 0.0 0.0
0.8300000000000001 0.0 0.0
0.84 0.0 0.0
0.85 0.0 0.0
0.86 0.0 0.0
0.87 0.0 0.0
0.88 0.0 0.0
0.89 0.0 0.0
0.9 0.0 0.0
0.91 0.0 0.0
0.92 0.0 0.0
0.93 0.0 0.0
0.9400000000000001 0.0 0.0
0.9500000000000001 0.0 0.0
0.96 0.0 0.0
0.97 0.0 0.0
0.98 0.0 0.0
0.99 0.0 0.0
1.0 0.0 0.0
0.0 0.01 0.0
0.01 0.01 0.0
0.02 0.01 0.0
0.03 0.01 0.0
0.04 0.01 0.0
0.05 0.01 0.0
0.06 0.01 0.0
0.07 0.01 0.0
0.08 0.01 0.0
0.09 0.01 0.0
0.1 0.01 0.0
0.11 0.01 0.0
0.12 0.01 0.0
0.13 0.01 0.0
0.14 0.01 0.0
0.15 0.01 0.0
0.16 0.01 0.0
0.17 0.01 0.0
0.18 0.01 0.0
0.19 0.01 0.0
0.2 0.01 0.0
0.21 0.01 0.0
0.22 0.01 0.0
0.23 0.01 0.0
0.24 0.01 0.0
0.25 0.01 0.0
0.26 0.01 0.0
0.27 0.01 0.0
0.28 0.01 0.0
0.29 0.01 0.0
0.3 0.01 0.0
0.31 0.01 0.0
0.32 0.01 0.0
0.33 0.01 0.0
0.34 0.01 0.0
0.35000000000000003 0.01 0.0
0.36 0.01 0.0
0.37 0.01 0.0
0.38 0.01 0.0
0.39 0.01 0.0
0.4 0.01 0.0
0.41000000000000003 0.01 0.0
0.42 0.01 0.0
0.43 0.01 0.0
0.44 0.01 0.0
0.45 0.01 0.0
0.46 0.01 0.0
0.47000000000000003 0.01 0.0
0.48 0.01 0.0
0.49 0.01 0.0
0.5 0.01 0.0
0.51 0.01 0.0
0.52 0.01 0.0
0.53 0.01 0.0
0.54 0.01 0.0
0.55 0.01 0.0
0.56 0.01 0.0
0.5700000000000001 0.01 0.0
0.58 0.01 0.0
0.59 0.01 0.0
0.6 0.01 0.0
0.61 0.01 0.0
0.62 0.01 0.0
0.63 0.01 0.0
0.64 0.01 0.0
0.65 0.01 0.0
0.66 0.01 0.0
0.67 0.01 0.0
0.68 0.01 0.0
0.6900000000000001 0.01 0.0
0.7000000000000001 0.01 0.0
0.71 0.01 0.0
0.72 0.01 0.0
0.73 0.01 0.0
0.74 0.01 0.0
0.75 0.01 0.0
0.76 0.01 0.0
0.77 0.01 0.0
0.78 0.01 0.0
0.79 0.01 0.0
0.8 0.01 0.0
0.81 0.01 0.0
0.8200000000000001 0.01 0.0
0.8300000000000001 0.01 0.0
0.84 0.01 0.0
0.85 0.01 0.0
0.86 0.01 0.0
0.87 0.01 0.0
0.88 0.01 0.0
0.89 0.01 0.0
0.9 0.01 0.0
0.91 0.01 0.0
0.92 0.01 0.0
0.93 0.01 0.0
0.9400000000000001 0.01 0.0
0.9500000000000001 0.01 0.0
0.96 0.01 0.0
0.97 0.01 0.0
0.98 0.01 0.0
0.99 0.01 0.0
1.0 0.01 0.0
0.0 0.02 0.0
0.01 0.02 0.0
0.02 0.02 0.0
0.03 0.02 0.0
0.04 0.02 0.0
0.05 0.02 0.0
0.06 0.02 0.0
0.07 0.02 0.0
0.08 0.02 0.0
0.09 0.02 0.0
0.1 0.02 0.0
0.11 0.02 0.0
0.12 0.02 0.0
0.13 0.02 0.0
0.14 0.02 0.0
0.15 0.02 0.0
0.16 0.02 0.0
0.17 0.02 0.0
0.18 0.02 0.0
0.19 0.02 0.0
0.2 0.02 0.0
0.21 0.02 0.0
0.22 0.02 0.0
0.23 0.02 0.0
0.24 0.02 0.0
0.25 0.02 0.0
0.26 0.02 0.0
0.27 0.02 0.0
0.28 0.02 0.0
0.29 0.02 0.0
0.3 0.02 0.0
0.31 0.02 0.0
0.32 0.02 0.0
0.33 0.02 0.0
0.34 0.02 0.0
0.35000000000000003 0.02 0.0
0.36 0.02 0.0
0.37 0.02 0.0
0.38 0.02 0.0
0.39 0.02 0.0
0.4 0.02 0.0
0.41000000000000003 0.02 0.0
0.42 0.02 0.0
0.43 0.02 0.0
0.44 0.02 0.0
0.45 0.02 0.0
0.46 0.02 0.0
0.47000000000000003 0.02 0.0
0.48 0.02 0.0
0.49 0.02 0.0
0.5 0.02 0.0
0.51 0.02 0.0
0.52 0.02 0.0
0.53 0.02 0.0
0.54 0.02 0.0
0.55 0.02 0.0
0.56 0.02 0.0
0.5700000000000001 0.02 0.0
0.58 0.02 0.0
0.59 0.02 0.0
0.6 0.02 0.0
0.61 0.02 0.0
0.62 0.02 0.0
0.63 0.02 0.0
0.64 0.02 0.0
0.65 0.02 0.0
0.66 0.02 0.0
0.67 0.02 0.0
0.68 0.02 0.0
0.6900000000000001 0.02 0.0
0.7000000000000001 0.02 0.0
0.71 0.02 0.0
0.72 0.02 0.0
0.73 0.02 0.0
0.74 0.02 0.0
0.75 0.02 0.0
0.76 0.02 0.0
0.77 0.02 0.0
0.78 0.02 0.0
0.79 0.02 0.0
0.8 0.02 0.0
0.81 0.02 0.0
0.8200000000000001 0.02 0.0
0.8300000000000001 0.02 0.0
0.84 0.02 0.0
0.85 0.02 0.0
0.86 0.02 0.0
0.87 0.02 0.0
0.88 0.02 0.0
0.89 0.02 0.0
0.9 0.02 0.0
0.91 0.02 0.0
0.92 0.02 0.0
0.93 0.02 0.0
0.9400000000000001 0.02 0.0
0.9500000000000001 0.02 0.0
0.96 0.02 0.0
0.97 0.02 0.0
0.98 0.02 0.0
0.99 0.02 0.0
1.0 0.02 0.0
0.0 0.03 0.0
0.01 0.03 0.0
0.02 0.03 0.0
0.03 0.03 0.0
0.04 0.03 0.0
0.05 0.03 0.0
0.06 0.03 0.0
0.07 0.03 0.0
0.08 0.03 0.0
0.09 0.03 0.0
0.1 0.03 0.0
0.11 0.03 0.0
0.12 0.03 0.0
0.13 0.03 0.0
0.14 0.03 0.0
0.15 0.03 0.0
0.16 0.03 0.0
0.17 0.03 0.0
0.18 0.03 0.0
0.19 0.03 0.0
0.2 0.03 0.0
0.21 0.03 0.0
0.22 0.03 0.0
0.23 0.03 0.0
0.24 0.03 0.0
0.25 0.03 0.0
0.26 0.03 0.0
0.27 0.03 0.0
0.28 0.03 0.0
0.29 0.03 0.0
0.3 0.03 0.0
0.31 0.03 0.0
0.32 0.03 0.0
0.33 0.03 0.0
0.34 0.03 0.0
0.35000000000000003 0.03 0.0
0.36 0.03 0.0
0.37 0.03 0.0
0.38 0.03 0.0
0.39 0.03 0.0
0.4 0.03 0.0
0.41000000000000003 0.03 0.0
0.42 0.03 0.0
0.43 0.03 0.0
0.44 0.03 0.0
0.45 0.03 0.0
0.46 0.03 0.0
0.47000000000000003 0.03 0.0
0.48 0.03 0.0
0.49 0.03 0.0
0.5 0.03 0.0
0.51 0.03 0.0
0.52 0.03 0.0
0.53 0.03 0.0
0.54 0.03 0.0
0.55 0.03 0.0
0.56 0.03 0.0
0.5700000000000001 0.03 0.0
0.58 0.03 0.0
0.59 0.03 0.0
0.6 0.03 0.0
0.61 0.03 0.0
0.62 0.03 0.0
0.63 0.03 0.0
0.64 0.03 0.0
0.65 0.03 0.0
0.66 0.03 0.0
0.67 0.03 0.0
0.68 0.03 0.0
0.6900000000000001 0.03 0.0
0.7000000000000001 0.03 0.0
0.71 0.03 0.0
0.72 0.03 0.0
0.73 0.03 0.0
0.74 0.03 0.0
0.75 0.03 0.0
0.76 0.03 0.0
0.77 0.03 0.0
0.78 0.03 0.0
0.79 0.03 0.0
0.8 0.03 0.0
0.81 0.03 0.0
0.8200000000000001 0.03 0.0
0.8300000000000001 0.03 0.0
0.84 0.03 0.0
0.85 0.03 0.0
0.86 0.03 0.0
0.87 0.03 0.0
0.88 0.03 0.0
0.89 0.03 0.0
0.9 0.03 0.0
0.91 0.03 0.0
0.92 0.03 0.0
0.93 0.03 0.0
0.9400000000000001 0.03 0.0
0.9500000000000001 0.03 0.0
0.96 0.03 0.0
0.97 0.03 0.0
0.98 0.03 0.0
0.99 0.03 0.0
1.0 0.03 0.0
0.0 0.04 0.0
0.01 0.04 0.0
0.02 0.04 0.0
0.03 0.04 0.0
0.04 0.04 0.0
0.05 0.04 0.0
0.06 0.04 0.0
0.07 0.04 0.0
0.08 0.04 0.0
0.09 0.04 0.0
0.1 0.04 0.0
0.11 0.04 0.0
0.12 0.04 0.0
0.13 0.04 0.0
0.14 0.04 0.0
0.15 0.04 0.0
0.16 0.04 0.0
0.17 0.04 0.0
0.18 0.04 0.0
0.19 0.04 0.0
0.2 0.04 0.0
0.21 0.04 0.0
0.22 0.04 0.0
0.23 0.04 0.0
0.24 0.04 0.0
0.25 0.04 0.0
0.26 0.04 0.0
0.27 0.04 0.0
0.28 0.04 0.0
0.29 0.04 0.0
0.3 0.04 0.0
0.31 0.04 0.0
0.32 0.04 0.0
0.33 0.04 0.0
0.34 0.04 0.0
0.35000000000000003 0.04 0.0
0.36 0.04 0.0
0.37 0.04 0.0
0.38 0.04 0.0
0.39 0.04 0.0
0.4 0.04 0.0
0.41000000000000003 0.04 0.0
0.42 0.04 0.0
0.43 0.04 0.0
0.44 0.04 0.0
0.45 0.04 0.0
0.46 0.04 0.0
0.47000000000000003 0.04 0.0
0.48 0.04 0.0
0.49 0.04 0.0
0.5 0.04 0.0
0.51 0.04 0.0
0.52 0.04 0.0
0.53 0.04 0.0
0.54 0.04 0.0
0.55 0.04 0.0
0.56 0.04 0.0
0.5700000000000001 0.04 0.0
0.58 0.04 0.0
0.59 0.04 0.0
0.6 0.04 0.0
0.61 0.04 0.0
0.62 0.04 0.0
0.63 0.04 0.0
0.64 0.04 0.0
0.65 0.04 0.0
0.66 0.04 0.0
0.67 0.04 0.0
0.68 0.04 0.0
0.6900000000000001 0.04 0.0
0.7000000000000001 0.04 0.0
0.71 0.04 0.0
0.72 0.04 0.0
0.73 0.04 0.0
0.74 0.04 0.0
0.75 0.04 0.0
0.76 0.04 0.0
0.77 0.04 0.0
0.78 0.04 0.0
0.79 0.04 0.0
0.8 0.04 0.0
0.81 0.04 0.0
0.8200000000000001 0.04 0.0
0.8300000000000001 0.04 0.0
0.84 0.04 0.0
0.85 0.04 0.0
0.86 0.04 0.0
0.87 0.04 0.0
0.88 0.04 0.0
0.89 0.04 0.0
0.9 0.04 0.0
0.91 0.04 0.0
0.92 0.04 0.0
0.93 0.04 0.0
0.9400000000000001 0.04 0.0
0.9500000000000001 0.04 0.0
0.96 0.04 0.0
0.97 0.04 0.0
0.98 0.04 0.0
0.99 0.04 0.0
1.0 0.04 0.0
0.0 0.05 0.0
0.01 0.05 0.0
0.02 0.05 0.0
0.03 0.05 0.0
0.04 0.05 0.0
0.05 0.05 0.0
0.06 0.05 0.0
0.07 0.05 0.0
0.08 0.05 0.0
0.09 0.05 0.0
0.1 0.05 0.0
0.11 0.05 0.0
0.12 0.05 0.0
0.13 0.05 0.0
0.14 0.05 0.0
0.15 0.05 0.0
0.16 0.05 0.0
0.17 0.05 0.0
0.18 0.05 0.0
0.19 0.05 0.0
0.2 0.05 0.0
0.21 0.05 0.0
0.22 0.05 0.0
0.23 0.05 0.0
0.24 0.05 0.0
0.25 0.05 0.0
0.26 0.05 0.0
0.27 0.05 0.0
0.28 0.05 0.0
0.29 0.05 0.0
0.3 0.05 0.0
0.31 0.05 0.0
0.32 0.05 0.0
0.33 0.05 0.0
0.34 0.05 0.0
0.35000000000000003 0.05 0.0
0.36 0.05 0.0
0.37 0.05 0.0
0.38 0.05 0.0
0.39 0.05 0.0
0.4 0.05 0.0
0.41000000000000003 0.05 0.0
0.42 0.05 0.0
0.43 0.05 0.0
0.44 0.05 0.0
0.45 0.05 0.0
0.46 0.05 0.0
0.47000000000000003 0.05 0.0
0.48 0.05 0.0
0.49 0.05 0.0
0.5 0.05 0.0
0.51 0.05 0.0
0.52 0.05 0.0
0.53 0.05 0.0
0.54 0.05 0.0
0.55 0.05 0.0
0.56 0.05 0.0
0.5700000000000001 0.05 0.0
0.58 0.05 0.0
0.59 0.05 0.0
0.6 0.05 0.0
0.61 0.05 0.0
0.62 0.05 0.0
0.63 0.05 0.0
0.64 0.05 0.0
0.65 0.05 0.0
0.66 0.05 0.0
0.67 0.05 0.0
0.68 0.05 0.0
0.6900000000000001 0.05 0.0
0.7000000000000001 0.05 0.0
0.71 0.05 0.0
0.72 0.05 0.0
0.73 0.05 0.0
0.74 0.05 0.0
0.75 0.05 0.0
0.76 0.05 0.0
0.77 0.05 0.0
0.78 0.05 0.0
0.79 0.05 0.0
0.8 0.05 0.0
0.81 0.05 0.0
0.8200000000000001 0.05 0.0
0.8300000000000001 0.05 0.0
0.84 0.05 0.0
0.85 0.05 0.0
0.86 0.05 0.0
0.87 0.05 0.0
0.88 0.05 0.0
0.89 0.05 0.0
0.9 0.05 0.0
0.91 0.05 0.0
0.92 0.05 0.0
0.93 0.05 0.0
0.9400000000000001 0.05 0.0
0.9500000000000001 0.05 0.0
0.96 0.05 0.0
0.97 0.05 0.0
0.98 0.05 0.0
0.99 0.05 0.0
1.0 0.05 0.0
0.0 0.06 0.0
0.01 0.06 0.0
0.02 0.06 0.0
0.03 0.06 0.0
0.04 0.06 0.0
0.05 0.06 0.0
0.06 0.06 0.0
0.07 0.06 0.0
0.08 0.06 0.0
0.09 0.06 0.0
0.1 0.06 0.0
0.11 0.06 0.0
0.12 0.06 0.0
0.13 0.06 0.0
0.14 0.06 0.0
0.15 0.06 0.0
0.16 0.06 0.0
0.17 0.06 0.0
0.18 0.06 0.0
0.19 0.06 0.0
0.2 0.06 0.0
0.21 0.06 0.0
0.22 0.06 0.0
0.23 0.06 0.0
0.24 0.06 0.0
0.25 0.06 0.0
0.26 0.06 0.0
0.27 0.06 0.0
0.28 0.06 0.0
0.29 0.06 0.0
0.3 0.06 0.0
0.31 0.06 0.0
0.32 0.06 0.0
0.33 0.06 0.0
0.34 0.06 0.0
0.35000000000000003 0.06 0.0
0.36 0.06 0.0
0.37 0.06 0.0
0.38 0.06 0.0
0.39 0.06 0.0
0.4 0.06 0.0
0.41000000000000003 0.06 0.0
0.42 0.06 0.0
0.43 0.06 0.0
0.44 0.06 0.0
0.45 0.06 0.0
0.46 0.06 0.0
[...]
POINT_DATA  10201
FIELD  FlowField  4
Density    1 10201  double
1.0071883743039254
1.0080744173597438
1.0106221346212374
1.0150252381889024
1.0220957493476273
1.0329658824760006
1.048890687667713
1.0709594825050042
1.0997203470803965
1.134861174129238
1.1750996288763953
1.2183294922072077
1.2619480188003935
1.3032352754454082
1.3396764451049261
1.3691616067374859
1.390064303395151
1.4012486773410924
1.4020522967763136
1.3922770242103752
1.3722038773323997
1.342636053000895
1.3049619464839672
1.2612074913624172
1.2140237601974362
1.1665454724557205
1.1220673648126644
1.0835339575333296
1.0529437149100287
1.030898991148706
1.0165759467838282
1.0081963280613109
1.003756034799855
1.0016034044404674
1.000639845707257
1.000239127078221
1.000083762016215
1.0000275069293791
1.0000084693731461
1.0000024453010252
1.0000006622490032
1.0000001683325803
1.0000000401942057
1.0000000090272838
1.0000000019101654
1.0000000003815943
1.0000000000721458
1.0000000000129448
1.0000000000022111
1.0000000000003604
1.0000000000000555
1.0000000000000078
1.0000000000000007
1.0
1.0
1.0
1.0
1.0
1.0
1.0
1.0
1.0
1.0
1.0
1.0
1.0
1.0
1.0
1.0
1.0
1.0
1.0
1.0
1.0
1.0
1.0
1.0
1.0
1.0
1.0
1.0
1.0
1.0
1.0
1.0
1.0
1.0
1.0
1.0
1.0
1.0
1.0
1.0
1.0
1.0
1.0
1.0
1.0
1.0
1.0
1.0
1.0238525325630687
1.0265255057776197
1.0339471434569516
1.0460822728847146
1.0642994201919418
1.0900949535840254
1.1245080452531124
1.1677251632375585
1.2188634847829587
1.2760176869011994
1.3365361867757006
1.3974141681574141
1.4556781517903294
1.5086717770062958
1.5542118672147474
1.5906209815707677
1.6166706669106983
1.631495298773248
1.6345223070446584
1.6254412288183655
1.6042179322260997
1.5711520356757105
1.52697742463983
1.472994964823967
1.41120111101502
1.3443564521636056
1.2759264696217114
1.2098316670881917
1.1499832581561684
1.0996564058389287
1.0608395374595214
1.0337740732665401
1.016948171652036
1.0076997791132825
1.0031952556582469
1.0012244346125396
1.0004366319336129
1.0001454757930852
1.0000453651290295
1.0000132506360828
1.0000036269218857
1.000000930819693
1.0000002241666137
1.0000000507176372
1.0000000107971707
1.0000000021671454
1.000000000411092
1.0000000000739049
1.0000000000126308
1.0000000000020586
1.0000000000003206
1.0000000000000475
1.0000000000000064
1.0000000000000007
1.0
1.0
1.0
1.0
1.0
1.0
1.0
1.0
1.0
1.0
1.0
1.0
1.0
1.0
1.0
1.0
1.0
1.0
1.0
1.0
1.0
1.0
1.0
1.0
1.0
1.0
1.0
1.0
1.0
1.0
1.0
1.0
1.0
1.0
1.0
1.0
1.0
1.0
1.0
1.0
1.0
1.0
1.0
1.0
1.0
1.0
1.0
1.1091803450364885
1.118530300607378
1.1432567285080746
1.1804275249885892
1.2309162482675355
1.294925544240354
1.3710719998326892
1.4564860673249178
1.5472948412423069
1.6392930466230333
1.7285650718864554
1.8118987091594776
1.8869494078910702
1.952190006507461
2.006729587283026
2.05009405510782
2.0820087793553137
2.10221811526765
2.110374727098417
2.105999740510994
2.088500943800568
2.057228573104446
2.0115765110781454
1.9511596240338798
1.8760655319524555
1.787156863169858
1.6863953492510544
1.5771226195821872
1.4641787926685788
1.3536939835758979
1.2523847174925562
1.1663578011070008
1.0997293328214717
1.053535432302342
1.0254453830829953
1.0106985194071247
1.0040283212305372
1.0013844134774141
1.0004404483316034
1.000130636873095
1.0000362285202578
1.0000094066592546
1.0000022889937679
1.000000522596082
1.0000001121089972
1.000000022640874
1.0000000043146398
1.0000000007780332
1.0000000001331721
1.0000000000217102
1.0000000000033828
1.0000000000005052
1.0000000000000724
1.00000000000001
1.000000000000001
1.0
1.0
1.0
1.0
1.0
1.0
1.0
1.0
1.0
1.0
1.0
1.0
1.0
1.0
1.0
1.0
1.0
1.0
1.0
1.0
1.0
1.0
1.0
1.0
1.0
1.0
1.0
1.0
1.0
1.0
1.0
1.0
1.0
1.0
1.0
1.0
1.0
1.0
1.0
1.0
1.0
1.0
1.0
1.0
1.0
1.0
1.3490080725864295
1.368397567933395
1.4179274091035021
1.4873456621496444
1.573474060370348
1.6723500365902335
1.7787455479595504
1.8870867176663446
1.9923679912196546
2.0907403629239947
2.1797195048755387
2.2580932654812895
2.325648456609001
2.38281683388662
2.430320622395918
2.4688897305229984
2.4990626969586986
2.5210546359310797
2.5346938644387342
2.5394194577228157
2.5343161678769643
2.5181402095557965
2.4893528324930565
2.4462134064598233
2.386924092696634
2.3098418886841348
2.213801805194829
2.098572964206824
1.9654349619143971
1.8177895321112079
1.6616165376352254
1.5054827447382453
1.3597412762693735
1.2346235114286455
1.1375792006662935
1.0710550656161966
1.031788074991456
1.012278262480533
1.0041637048313932
1.0012755067208108
1.000360466736325
1.000094881452353
1.000023349348531
1.0000053823559434
1.0000011640459772
1.0000002366332112
1.0000000453192577
1.0000000081993836
1.0000000014058517
1.0000000002292273
1.0000000000356746
1.0000000000053189
1.000000000000762
1.0000000000001052
1.0000000000000138
1.0000000000000013
1.0
1.0
1.0
1.0
1.0
1.0
1.0
1.0
1.0
1.0
1.0
1.0
1.0
1.0
1.0
1.0
1.0
1.0
1.0
1.0
1.0
1.0
1.0
1.0
1.0
1.0
1.0
1.0
1.0
1.0
1.0
1.0
1.0
1.0
1.0
1.0
1.0
1.0
1.0
1.0
1.0
1.0
1.0
1.0
1.0
1.7828654352061357
1.8066616594457545
1.8669031448429245
1.9481212215433503
2.0422288525122623
2.141962405383185
2.240874746302868
2.3339256696126798
2.417857916021056
2.4911441726771657
2.553661739924923
2.6062672497903425
2.6503740315070297
2.6875900091616742
2.719439366837592
2.7471405029699447
2.771479160614555
2.79277102676667
2.8108550665917234
2.8251251228507472
2.83458077840083
2.8378426553440548
2.8331624380582507
2.8184414814765457
2.791232591507136
2.748774846950979
2.6880931189404054
2.606201303958566
2.5004686799213798
2.369212687793117
2.212559600436013
2.033515981124441
1.8389789283468194
1.6401528969391022
1.4517056487828581
1.2890592162310783
1.1639420399300573
1.0803274523472006
1.0332774658955763
1.01161591408738
1.0035028480225765
1.0009494915040036
1.0002374244594716
1.0000553423369127
1.0000120743515322
1.000002471746741
1.000000475889103
1.0000000864079237
1.00000001484293
1.000000002420692
1.0000000003762377
1.0000000000559484
1.0000000000079907
1.0000000000011002
1.0000000000001463
1.0000000000000184
1.000000000000002
1.0000000000000002
1.0
1.0
1.0
1.0
1.0
1.0
1.0
1.0
1.0
1.0
1.0
1.0
1.0
1.0
1.0
1.0
1.0
1.0
1.0
1.0
1.0
1.0
1.0
1.0
1.0
1.0
1.0
1.0
1.0
1.0
1.0
1.0
1.0
1.0
1.0
1.0
1.0
1.0
1.0
1.0
1.0
1.0
1.0
2.3264127848849867
2.3418782254413237
2.3833852266428983
2.440923145550153
2.5051434753883273
2.5689672912039168
2.62770840707194
2.6786434737779508
2.720776760229662
2.7544525071651056
2.7809088250337566
2.801867928840336
2.819198144353125
2.834685893588513
2.849901228010835
2.866015838684238
2.883706728990674
2.9031902360360533
2.9242390556447346
2.9462181463274217
2.968131011744261
2.9886646422912615
3.0062231593858386
3.0188989328419367
3.024411882332703
3.020069536215937
3.0027329907046214
2.9688038215988417
2.914267684370774
2.834858619731674
2.7264388368922425
2.5857172331971365
2.411420382070821
2.2059306748811007
1.977072869754649
1.7391668556697517
1.512098107691077
1.3173558066702846
1.171108688695149
1.0778267893383058
1.0291242488133836
1.0089802016272003
1.0023744874313067
1.0005662352003528
1.0001250207553145
1.0000257982264464
1.0000049955975014
1.0000009105608778
1.000000156732677
1.0000000255683443
1.000000003968594
1.0000000005884846
1.00000000008371
1.0000000000114677
1.0000000000015183
1.0000000000001947
1.000000000000024
1.0000000000000027
1.0000000000000002
1.0
1.0
1.0
1.0
1.0
1.0
1.0
1.0
1.0
1.0
1.0
1.0
1.0
1.0
1.0
1.0
1.0
1.0
1.0
1.0
1.0
1.0
1.0
1.0
1.0
1.0
1.0
1.0
1.0
1.0
1.0
1.0
1.0
1.0
1.0
1.0
1.0
1.0
1.0
1.0
1.0
1.0
2.8419744013635206
2.8389198681832877
2.838991280094306
2.8480019904189326
2.859588036897929
2.8694247954094103
2.8754887226860455
2.877066593697637
2.8744457310094296
2.8686283488439654
2.861044943996093
2.853300397149615
2.846968862106199
2.8435058690218744
2.844207300823168
2.850008986632276
2.8613940754294354
2.8784631748587453
2.9009434688676103
2.928202617986985
2.959272993355052
2.992949180297301
3.0278521023099314
3.0623657964723154
3.0945749608704416
3.122220529893114
3.1426399454267715
3.1526931730593697
3.1486829954417095
3.126288039825597
3.080545658196506
3.0059610588908607
2.896883926483151
2.7483618417836886
2.557693740260264
2.3267868615833898
2.0649495143748138
1.7907236881210764
1.5305720784572168
1.3126915008010303
1.156513318080438
1.0641578212164362
1.0210078654670418
1.005584839855587
1.0012826456327708
1.00026862657663
1.0000524065561378
1.0000095944961902
1.0000016552483233
1.00000027012801
1.0000000418697943
1.0000000061902141
1.0000000008767136
1.000000000119449
1.000000000015718
1.0000000000020048
1.0000000000002485
1.0000000000000298
1.0000000000000036
1.0000000000000004
1.0
1.0
1.0
1.0
1.0
1.0
1.0
1.0
1.0
1.0
1.0
1.0
1.0
1.0
1.0
1.0
1.0
1.0
1.0
1.0
1.0
1.0
1.0
1.0
1.0
1.0
1.0
1.0
1.0
1.0
1.0
1.0
1.0
1.0
1.0
1.0
1.0
1.0
1.0
1.0
1.0
3.2395001512080976
3.214422176648143
3.1656236582755795
3.119138909905569
3.0736636703381426
3.02842768457307
2.9837696573271395
2.94016311321682
2.8982486043265987
2.8588706956877945
2.8230308655809546
2.7917929272732467
2.7661808749591223
2.7471845954763072
2.7357535671331172
2.732569949761596
2.737960190393309
2.7519692471730686
2.7743447877323306
2.804513362565635
2.8415760971626356
2.8844348271914426
2.9318852671645512
2.9825495130380775
3.034822207238804
3.086840523267045
3.136438276927573
3.1810810877965148
3.2177826888065537
3.2430019195649624
3.252521570007451
3.241322754627345
3.203497342123745
3.1322951549676166
3.0205063511053662
2.861507797535359
2.651360897077539
2.392161637578492
2.09611709747232
1.7880629528585485
1.5028268412881236
1.275013818620368
1.1238062981825387
1.0440392005910784
1.012181410470034
1.0027461104799062
1.0005476796320656
1.0001010282675864
1.0000174821518373
1.0000028546233621
1.0000004418466157
1.000000065120191
1.0000000091803272
1.000000001243482
1.000000000162516
1.0000000000205735
1.0000000000025313
1.0000000000003033
1.0000000000000353
1.000000000000004
1.0000000000000004
1.0
1.0
1.0
1.0
1.0
1.0
1.0
1.0
1.0
1.0
1.0
1.0
1.0
1.0
1.0
1.0
1.0
1.0
1.0
1.0
1.0
1.0
1.0
1.0
1.0
1.0
1.0
1.0
1.0
1.0
1.0
1.0
1.0
1.0
1.0
1.0
1.0
1.0
1.0
1.0
3.495504969790359
3.4494035511930483
3.354376259588562
3.2565531538118413
3.159771948179016
3.0663917524385944
2.978546426098495
2.8973498351363145
2.8233583344893862
2.756956813402846
2.698535730590927
2.6485294311075984
2.607395634749
2.5756605793582525
2.553921257688773
2.542636961971164
2.5420400143782382
2.5521846715194734
2.5729070954025857
2.603764807837607
2.6439992523175593
2.6926325217822438
2.7485897699105677
2.810675086513256
2.8775160999440734
2.9475415034387056
3.018949548874293
3.0896618919450836
3.157264944661121
3.2189367274572684
3.271350515517293
3.310544315835224
3.3317507898483165
3.3291995354192605
3.2959452881322266
3.2238544274174097
3.1040385383580937
2.928245122206836
2.691817847242632
2.3985018176930977
2.0660673449603575
1.7288026949602555
1.4313919340792396
1.2119026550837435
1.0823176008159343
1.0242952399010545
1.00551867830287
1.0010566005590538
1.0001844660186454
1.0000301705673746
1.000004663986555
1.0000006851403125
1.000000096113606
1.000000012937335
1.0000000016785136
1.0000000002107796
1.0000000000257137
1.0000000000030569
1.0000000000003548
1.00000000000004
1.0000000000000042
1.0000000000000004
1.0
1.0
1.0
1.0
1.0
1.0
1.0
1.0
1.0
1.0
1.0
1.0
1.0
1.0
1.0
1.0
1.0
1.0
1.0
1.0
1.0
1.0
1.0
1.0
1.0
1.0
1.0
1.0
1.0
1.0
1.0
1.0
1.0
1.0
1.0
1.0
1.0
1.0
1.0
3.626469983468133
3.561663794803177
3.425899116549255
3.283955923712101
3.1442486651226047
3.011286528276791
2.888391704823024
2.7770061047789616
2.677461592100334
2.5896382837757432
2.51332467288418
2.4483668968337002
2.394715152842797
2.35246525661896
2.3218546321741185
2.3031323829659165
2.2964726045960706
2.3019696479940324
2.319586663908126
2.3490728770879437
2.3898924614657986
2.4412387956918122
2.502155723361575
2.571600814911962
2.6484062927717296
2.7312452310282995
2.818601430213152
2.908728033466557
2.9996019266494947
3.088878188890841
3.1738388513523113
3.2513212382125474
3.3176066274550493
3.3682508094551684
3.3978469940407265
3.3997349905467527
3.3657297601010416
3.2860656714686423
3.1500007818336977
2.947872216683158
2.6754910513680676
2.3410642384813523
1.9722594963653943
1.6165251914492316
1.3273760524556613
1.1382350691810585
1.0439985842219788
1.010324800884366
1.0019226069478138
1.000318361630589
1.0000492339217517
1.0000072094062358
1.00000100610259
1.0000001345202045
1.000000017316359
1.000000002155716
1.0000000002605685
1.000000000030687
1.0000000000035314
1.0000000000003975
1.0000000000000435
1.0000000000000044
1.0000000000000004
1.0
1.0
1.0
1.0
1.0
1.0
1.0
1.0
1.0
1.0
1.0
1.0
1.0
1.0
1.0
1.0
1.0
1.0
1.0
1.0
1.0
1.0
1.0
1.0
1.0
1.0
1.0
1.0
1.0
1.0
1.0
1.0
1.0
1.0
1.0
1.0
1.0
1.0
3.662402832454635
3.5807498875749153
3.4085312941855017
3.2282742393613617
3.052768637750898
2.8876436711273845
2.7367413023056804
2.6015146975949923
2.481966741628033
2.377475341685361
2.287275081682235
2.2106857791835473
2.1472033828645056
2.096527378026332
2.058539154053852
2.033250518946122
2.020752202906049
2.021161912625416
2.034559039510783
2.0608997583183006
2.0999236562112227
2.1510857436609117
2.2135972757629094
2.286557428399521
2.3690038580965163
2.459870317335019
2.5579371594861984
2.661775989591656
2.7696935097078588
2.8796881052134973
2.989421629786845
3.0961959808429675
3.196914919013297
3.2880079829517426
3.3652909448974926
3.423736664295883
3.457141452956371
3.4577099334182386
3.4156742581162516
3.319265461912039
3.1557648557123517
2.9148491539558457
2.595354732266028
2.2149580334217536
1.8171396070880852
1.4644146541715866
1.211351827178533
1.0724729272636992
1.0178595219789848
1.003287600074661
1.0005182532561234
1.0000758443394593
1.0000105297050348
1.0000013978172009
1.000000178421525
1.0000000220051042
1.0000000026335794
1.0000000003069955
1.0000000000349667
1.0000000000039013
1.000000000000427
1.0000000000000457
1.0000000000000044
1.0000000000000004
1.0
1.0
1.0
1.0
1.0
1.0
1.0
1.0
1.0
1.0
1.0
1.0
1.0
1.0
1.0
1.0
1.0
1.0
1.0
1.0
1.0
1.0
1.0
1.0
1.0
1.0
1.0
1.0
1.0
1.0
1.0
1.0
1.0
1.0
1.0
1.0
1.0
3.6321108093155496
3.534556373681562
3.3280158917914733
3.112783141303592
2.906409957235656
2.714860386770761
2.541774267769534
2.3882008548535056
2.2536205909615674
2.1368541931644427
2.036596026021076
1.9516761464162986
1.8811643168934244
1.8243862223823768
1.7808940923706502
1.750439882215068
1.7329512769340525
1.7284883606762835
1.7371820065309191
1.7591492400370141
1.794391958967273
1.8426921693964573
1.9035468434917566
1.9762355692963858
2.059981492345197
2.1540049015766747
2.2574477288459325
2.3692774218136687
2.4881970104133364
2.6125751538033737
2.740408042209847
2.8693108096317785
2.996522277403586
3.118903037055406
3.2329037672882572
3.334472706341017
3.4188646694328626
3.480315531477094
3.5115668694615936
3.503290145741854
3.443618754609359
3.3183517343326803
3.1130536255900334
2.8188131164114125
2.442652437199266
2.0195363339389987
1.6141362899664409
1.298321298861167
1.1094620201859509
1.0284899858258862
1.005263926064362
1.00079406847693
1.0001101193280904
1.000014514003892
1.0000018358725966
1.0000002241473005
1.0000000265406173
1.0000000030599772
1.000000000344686
1.0000000000380411
1.0000000000041227
1.000000000000439
1.0000000000000457
1.0000000000000044
1.0000000000000004
1.0
1.0
1.0
1.0
1.0
1.0
1.0
1.0
1.0
1.0
1.0
1.0
1.0
1.0
1.0
1.0
1.0
1.0
1.0
1.0
1.0
1.0
1.0
1.0
1.0
1.0
1.0
1.0
1.0
1.0
1.0
1.0
1.0
1.0
1.0
1.0
3.557918192349246
3.444631155408816
3.204271311537467
2.955638229768335
2.721733630837285
2.508352390058568
2.318179091496384
2.1513645408065165
2.006582087147689
1.8819677180978427
1.775640524709944
1.6859460774657316
1.6115408089816559
1.5513923777377798
1.504747941247125
1.471101021779261
1.4501604750491754
1.441824945966434
1.4461502505699122
1.4632978764581888
1.4934534219470788
1.5367096698005256
1.592947968825844
1.661775499190489
1.742616081582179
1.8349158895608941
1.9382000886122543
2.0519316832230303
2.1753477554772775
2.3073333625997434
2.446339310629347
2.590352353391027
2.736904760457619
2.883103053288959
3.025662223963956
3.1609232048917386
3.2848178530108534
3.3927347748505694
3.4792339701892683
3.537566591418935
3.5589981559267736
3.5320527604499548
3.4420874477373644
3.2722619303353104
3.0079066003297696
2.6464385151665253
2.212282172260083
1.7667844573589375
1.3936734552110468
1.1531715551252462
1.04199528618078
1.0078692895227428
1.0011427917099325
1.0001504595623492
1.0000188599809876
1.0000022777725837
1.0000002666003274
1.0000000303749792
1.0000000033810534
1.0000000003687806
1.0000000000395117
1.000000000004166
1.0000000000004328
1.000000000000044
1.0000000000000042
1.0000000000000004
1.0
1.0
1.0
1.0
1.0
1.0
1.0
1.0
1.0
1.0
1.0
1.0
1.0
1.0
1.0
1.0
1.0
1.0
1.0
1.0
1.0
1.0
1.0
1.0
1.0
1.0
1.0
1.0
1.0
1.0
1.0
1.0
1.0
1.0
1.0
3.455112349386695
3.3257550058801257
3.051270927767753
2.7702648919902537
2.5117414323513483
2.2808554845860107
2.078583090673259
1.9036510538271727
1.7536097683479344
1.6257534987873243
1.5175703925499457
1.4269171063205117
1.3520526547562164
1.291609248797847
1.244544766252245
1.2100961174049492
1.1877388342162876
1.1771570713935227
1.1782253944298864
1.1909990271426225
1.2156859832988078
1.2525750293480151
1.301910383094204
1.3637494035062947
1.4378904839576963
1.5239949646337747
1.6218451074068891
1.7313915042551111
1.8525168217826145
1.984788463384817
2.1273093555358398
2.278639804155399
2.4367742235729155
2.5991512889996726
2.7626971318436846
2.923895998997298
3.078860366610522
3.2233600801910174
3.352756757705985
3.461778327585467
3.5440686826873806
3.5914719062610088
3.5930980172935536
3.5344507200080217
3.3974868445734048
3.1635764897392904
2.8222742823606564
2.3873933982717146
1.9135252122076978
1.4909781731857459
1.200561357270283
1.0574993889231674
1.0109683963821572
1.0015418995289165
1.000193187395811
1.0000230816668279
1.0000026680981264
1.000000300113471
1.0000000329807421
1.0000000035522523
1.0000000003759504
1.000000000039178
1.0000000000040266
1.0000000000004083
1.0000000000000406
1.0000000000000038
1.0000000000000002
1.0
1.0
1.0
1.0
1.0
1.0
1.0
1.0
1.0
1.0
1.0
1.0
1.0
1.0
1.0
1.0
1.0
1.0
1.0
1.0
1.0
1.0
1.0
1.0
1.0
1.0
1.0
1.0
1.0
1.0
1.0
1.0
1.0
1.0
3.3331414782872812
3.1871486578007753
2.8781935837620187
2.5663996407721488
2.2868275313852333
2.04324013129621
1.8341551311637907
1.6563916023167993
1.5061169681508972
1.3796681424197286
1.2738709780092359
1.1861043513282843
1.1142592041238264
1.0566647410024086
1.012013772467855
0.9792988287418504
0.9577633574968487
0.9468695474919826
0.9462815376055969
0.9558619282959927
0.975680373306185
1.006016678570524
1.04731174836607
1.1000252143061258
1.1644593012869426
1.240681504358901
1.3286897840656253
1.4287069793798979
1.5411958223583828
1.6665180833072748
1.8046078433886834
1.9548216686966071
2.1158675613554374
2.2857725163848146
2.4618859166317626
2.6409318248564366
2.8191056466138846
2.9921947561558477
3.155678550567879
3.3047400933953908
3.4341129243107815
3.5376812684026038
3.6077645379072565
3.634076679969828
3.6025413643768704
3.4946527497403426
3.289201525996801
2.9696555264726925
2.5402780779243974
2.0474259259543923
1.5839325178021038
1.247893776523212
1.0735961691534077
1.0142582301546224
1.0019474688988583
1.0002328135338014
1.0000265844229272
1.000002949332797
1.0000003196714378
1.0000000339693038
1.0000000035484167
1.000000000365156
1.0000000000370828
1.0000000000037212
1.0000000000003693
1.000000000000036
1.000000000000003
1.0000000000000002
1.0
1.0
1.0
1.0
1.0
1.0
1.0
1.0
1.0
1.0
1.0
1.0
1.0
1.0
1.0
1.0
1.0
1.0
1.0
1.0
1.0
1.0
1.0
1.0
1.0
1.0
1.0
1.0
1.0
1.0
1.0
1.0
1.0
3.197208160532055
3.034063964637367
2.690935511612926
2.3512812152879983
2.0554946391245865
1.8047856651763818
1.5945101211925925
1.4192336320337318
1.2735983289828434
1.1529517292310754
1.0534755113385579
0.9721096282751654
0.906422887199384
0.8544868979125869
0.814770958011376
0.7860611306520673
0.7674026147303008
0.7580628972261692
0.7575125814813938
0.7654214045918927
0.781668965329636
0.8063712018268396
0.8399132428920912
0.8829185311401258
0.9360876597706229
0.9999952569562773
1.0750427602347692