# vtk DataFile Version 3.0 
shock_diffraction_time_series_114_.vtk
ASCII
DATASET UNSTRUCTURED_GRID
POINTS         10201 double
0.0 0.0 0.0
0.01 0.0 0.0
0.02 0.0 0.0
0.03 0.0 0.0
0.04 0.0 0.0
0.05 0.0 0.0
0.06 0.0 0.0
0.07 0.0 0.0
0.08 0.0 0.0
0.09 0.0 0.0
0.1 0.0 0.0
0.11 0.0 0.0
0.12 0.0 0.0
0.13 0.0 0.0
0.14 0.0 0.0
0.15 0.0 0.0
0.16 0.0 0.0
0.17 0.0 0.0
0.18 0.0 0.0
0.19 0.0 0.0
0.2 0.0 0.0
0.21 0.0 0.0
0.22 0.0 0.0
0.23 0.0 0.0
0.24 0.0 0.0
0.25 0.0 0.0
0.26 0.0 0.0
0.27 0.0 0.0
0.28 0.0 0.0
0.29 0.0 0.0
0.3 0.0 0.0
0.31 0.0 0.0
0.32 0.0 0.0
0.33 0.0 0.0
0.34 0.0 0.0
0.35000000000000003 0.0 0.0
0.36 0.0 0.0
0.37 0.0 0.0
0.38 0.0 0.0
0.39 0.0 0.0
0.4 0.0 0.0
0.41000000000000003 0.0 0.0
0.42 0.0 0.0
0.43 0.0 0.0
0.44 0.0 0.0
0.45 0.0 0.0
0.46 0.0 0.0
0.47000000000000003 0.0 0.0
0.48 0.0 0.0
0.49 0.0 0.0
0.5 0.0 0.0
0.51 0.0 0.0
0.52 0.0 0.0
0.53 0.0 0.0
0.54 0.0 0.0
0.55 0.0 0.0
0.56 0.0 0.0
0.5700000000000001 0.0 0.0
0.58 0.0 0.0
0.59 0.0 0.0
0.6 0.0 0.0
0.61 0.0 0.0
0.62 0.0 0.0
0.63 0.0 0.0
0.64 0.0 0.0
0.65 0.0 0.0
0.66 0.0 0.0
0.67 0.0 0.0
0.68 0.0 0.0
0.6900000000000001 0.0 0.0
0.7000000000000001 0.0 0.0
0.71 0.0 0.0
0.72 0.0 0.0
0.73 0.0 0.0
0.74 0.0 0.0
0.75 0.0 0.0
0.76 0.0 0.0
0.77 0.0 0.0
0.78 0.0 0.0
0.79 0.0 0.0
0.8 0.0 0.0
0.81 0.0 0.0
0.8200000000000001 0.0 0.0
0.8300000000000001 0.0 0.0
0.84 0.0 0.0
0.85 0.0 0.0
0.86 0.0 0.0
0.87 0.0 0.0
0.88 0.0 0.0
0.89 0.0 0.0
0.9 0.0 0.0
0.91 0.0 0.0
0.92 0.0 0.0
0.93 0.0 0.0
0.9400000000000001 0.0 0.0
0.9500000000000001 0.0 0.0
0.96 0.0 0.0
0.97 0.0 0.0
0.98 0.0 0.0
0.99 0.0 0.0
1.0 0.0 0.0
0.0 0.01 0.0
0.01 0.01 0.0
0.02 0.01 0.0
0.03 0.01 0.0
0.04 0.01 0.0
0.05 0.01 0.0
0.06 0.01 0.0
0.07 0.01 0.0
0.08 0.01 0.0
0.09 0.01 0.0
0.1 0.01 0.0
0.11 0.01 0.0
0.12 0.01 0.0
0.13 0.01 0.0
0.14 0.01 0.0
0.15 0.01 0.0
0.16 0.01 0.0
0.17 0.01 0.0
0.18 0.01 0.0
0.19 0.01 0.0
0.2 0.01 0.0
0.21 0.01 0.0
0.22 0.01 0.0
0.23 0.01 0.0
0.24 0.01 0.0
0.25 0.01 0.0
0.26 0.01 0.0
0.27 0.01 0.0
0.28 0.01 0.0
0.29 0.01 0.0
0.3 0.01 0.0
0.31 0.01 0.0
0.32 0.01 0.0
0.33 0.01 0.0
0.34 0.01 0.0
0.35000000000000003 0.01 0.0
0.36 0.01 0.0
0.37 0.01 0.0
0.38 0.01 0.0
0.39 0.01 0.0
0.4 0.01 0.0
0.41000000000000003 0.01 0.0
0.42 0.01 0.0
0.43 0.01 0.0
0.44 0.01 0.0
0.45 0.01 0.0
0.46 0.01 0.0
0.47000000000000003 0.01 0.0
0.48 0.01 0.0
0.49 0.01 0.0
0.5 0.01 0.0
0.51 0.01 0.0
0.52 0.01 0.0
0.53 0.01 0.0
0.54 0.01 0.0
0.55 0.01 0.0
0.56 0.01 0.0
0.5700000000000001 0.01 0.0
0.58 0.01 0.0
0.59 0.01 0.0
0.6 0.01 0.0
0.61 0.01 0.0
0.62 0.01 0.0
0.63 0.01 0.0
0.64 0.01 0.0
0.65 0.01 0.0
0.66 0.01 0.0
0.67 0.01 0.0
0.68 0.01 0.0
0.6900000000000001 0.01 0.0
0.7000000000000001 0.01 0.0
0.71 0.01 0.0
0.72 0.01 0.0
0.73 0.01 0.0
0.74 0.01 0.0
0.75 0.01 0.0
0.76 0.01 0.0
0.77 0.01 0.0
0.78 0.01 0.0
0.79 0.01 0.0
0.8 0.01 0.0
0.81 0.01 0.0
0.8200000000000001 0.01 0.0
0.8300000000000001 0.01 0.0
0.84 0.01 0.0
0.85 0.01 0.0
0.86 0.01 0.0
0.87 0.01 0.0
0.88 0.01 0.0
0.89 0.01 0.0
0.9 0.01 0.0
0.91 0.01 0.0
0.92 0.01 0.0
0.93 0.01 0.0
0.9400000000000001 0.01 0.0
0.9500000000000001 0.01 0.0
0.96 0.01 0.0
0.97 0.01 0.0
0.98 0.01 0.0
0.99 0.01 0.0
1.0 0.01 0.0
0.0 0.02 0.0
0.01 0.02 0.0
0.02 0.02 0.0
0.03 0.02 0.0
0.04 0.02 0.0
0.05 0.02 0.0
0.06 0.02 0.0
0.07 0.02 0.0
0.08 0.02 0.0
0.09 0.02 0.0
0.1 0.02 0.0
0.11 0.02 0.0
0.12 0.02 0.0
0.13 0.02 0.0
0.14 0.02 0.0
0.15 0.02 0.0
0.16 0.02 0.0
0.17 0.02 0.0
0.18 0.02 0.0
0.19 0.02 0.0
0.2 0.02 0.0
0.21 0.02 0.0
0.22 0.02 0.0
0.23 0.02 0.0
0.24 0.02 0.0
0.25 0.02 0.0
0.26 0.02 0.0
0.27 0.02 0.0
0.28 0.02 0.0
0.29 0.02 0.0
0.3 0.02 0.0
0.31 0.02 0.0
0.32 0.02 0.0
0.33 0.02 0.0
0.34 0.02 0.0
0.35000000000000003 0.02 0.0
0.36 0.02 0.0
0.37 0.02 0.0
0.38 0.02 0.0
0.39 0.02 0.0
0.4 0.02 0.0
0.41000000000000003 0.02 0.0
0.42 0.02 0.0
0.43 0.02 0.0
0.44 0.02 0.0
0.45 0.02 0.0
0.46 0.02 0.0
0.47000000000000003 0.02 0.0
0.48 0.02 0.0
0.49 0.02 0.0
0.5 0.02 0.0
0.51 0.02 0.0
0.52 0.02 0.0
0.53 0.02 0.0
0.54 0.02 0.0
0.55 0.02 0.0
0.56 0.02 0.0
0.5700000000000001 0.02 0.0
0.58 0.02 0.0
0.59 0.02 0.0
0.6 0.02 0.0
0.61 0.02 0.0
0.62 0.02 0.0
0.63 0.02 0.0
0.64 0.02 0.0
0.65 0.02 0.0
0.66 0.02 0.0
0.67 0.02 0.0
0.68 0.02 0.0
0.6900000000000001 0.02 0.0
0.7000000000000001 0.02 0.0
0.71 0.02 0.0
0.72 0.02 0.0
0.73 0.02 0.0
0.74 0.02 0.0
0.75 0.02 0.0
0.76 0.02 0.0
0.77 0.02 0.0
0.78 0.02 0.0
0.79 0.02 0.0
0.8 0.02 0.0
0.81 0.02 0.0
0.8200000000000001 0.02 0.0
0.8300000000000001 0.02 0.0
0.84 0.02 0.0
0.85 0.02 0.0
0.86 0.02 0.0
0.87 0.02 0.0
0.88 0.02 0.0
0.89 0.02 0.0
0.9 0.02 0.0
0.91 0.02 0.0
0.92 0.02 0.0
0.93 0.02 0.0
0.9400000000000001 0.02 0.0
0.9500000000000001 0.02 0.0
0.96 0.02 0.0
0.97 0.02 0.0
0.98 0.02 0.0
0.99 0.02 0.0
1.0 0.02 0.0
0.0 0.03 0.0
0.01 0.03 0.0
0.02 0.03 0.0
0.03 0.03 0.0
0.04 0.03 0.0
0.05 0.03 0.0
0.06 0.03 0.0
0.07 0.03 0.0
0.08 0.03 0.0
0.09 0.03 0.0
0.1 0.03 0.0
0.11 0.03 0.0
0.12 0.03 0.0
0.13 0.03 0.0
0.14 0.03 0.0
0.15 0.03 0.0
0.16 0.03 0.0
0.17 0.03 0.0
0.18 0.03 0.0
0.19 0.03 0.0
0.2 0.03 0.0
0.21 0.03 0.0
0.22 0.03 0.0
0.23 0.03 0.0
0.24 0.03 0.0
0.25 0.03 0.0
0.26 0.03 0.0
0.27 0.03 0.0
0.28 0.03 0.0
0.29 0.03 0.0
0.3 0.03 0.0
0.31 0.03 0.0
0.32 0.03 0.0
0.33 0.03 0.0
0.34 0.03 0.0
0.35000000000000003 0.03 0.0
0.36 0.03 0.0
0.37 0.03 0.0
0.38 0.03 0.0
0.39 0.03 0.0
0.4 0.03 0.0
0.41000000000000003 0.03 0.0
0.42 0.03 0.0
0.43 0.03 0.0
0.44 0.03 0.0
0.45 0.03 0.0
0.46 0.03 0.0
0.47000000000000003 0.03 0.0
0.48 0.03 0.0
0.49 0.03 0.0
0.5 0.03 0.0
0.51 0.03 0.0
0.52 0.03 0.0
0.53 0.03 0.0
0.54 0.03 0.0
0.55 0.03 0.0
0.56 0.03 0.0
0.5700000000000001 0.03 0.0
0.58 0.03 0.0
0.59 0.03 0.0
0.6 0.03 0.0
0.61 0.03 0.0
0.62 0.03 0.0
0.63 0.03 0.0
0.64 0.03 0.0
0.65 0.03 0.0
0.66 0.03 0.0
0.67 0.03 0.0
0.68 0.03 0.0
0.6900000000000001 0.03 0.0
0.7000000000000001 0.03 0.0
0.71 0.03 0.0
0.72 0.03 0.0
0.73 0.03 0.0
0.74 0.03 0.0
0.75 0.03 0.0
0.76 0.03 0.0
0.77 0.03 0.0
0.78 0.03 0.0
0.79 0.03 0.0
0.8 0.03 0.0
0.81 0.03 0.0
0.8200000000000001 0.03 0.0
0.8300000000000001 0.03 0.0
0.84 0.03 0.0
0.85 0.03 0.0
0.86 0.03 0.0
0.87 0.03 0.0
0.88 0.03 0.0
0.89 0.03 0.0
0.9 0.03 0.0
0.91 0.03 0.0
0.92 0.03 0.0
0.93 0.03 0.0
0.9400000000000001 0.03 0.0
0.9500000000000001 0.03 0.0
0.96 0.03 0.0
0.97 0.03 0.0
0.98 0.03 0.0
0.99 0.03 0.0
1.0 0.03 0.0
0.0 0.04 0.0
0.01 0.04 0.0
0.02 0.04 0.0
0.03 0.04 0.0
0.04 0.04 0.0
0.05 0.04 0.0
0.06 0.04 0.0
0.07 0.04 0.0
0.08 0.04 0.0
0.09 0.04 0.0
0.1 0.04 0.0
0.11 0.04 0.0
0.12 0.04 0.0
0.13 0.04 0.0
0.14 0.04 0.0
0.15 0.04 0.0
0.16 0.04 0.0
0.17 0.04 0.0
0.18 0.04 0.0
0.19 0.04 0.0
0.2 0.04 0.0
0.21 0.04 0.0
0.22 0.04 0.0
0.23 0.04 0.0
0.24 0.04 0.0
0.25 0.04 0.0
0.26 0.04 0.0
0.27 0.04 0.0
0.28 0.04 0.0
0.29 0.04 0.0
0.3 0.04 0.0
0.31 0.04 0.0
0.32 0.04 0.0
0.33 0.04 0.0
0.34 0.04 0.0
0.35000000000000003 0.04 0.0
0.36 0.04 0.0
0.37 0.04 0.0
0.38 0.04 0.0
0.39 0.04 0.0
0.4 0.04 0.0
0.41000000000000003 0.04 0.0
0.42 0.04 0.0
0.43 0.04 0.0
0.44 0.04 0.0
0.45 0.04 0.0
0.46 0.04 0.0
0.47000000000000003 0.04 0.0
0.48 0.04 0.0
0.49 0.04 0.0
0.5 0.04 0.0
0.51 0.04 0.0
0.52 0.04 0.0
0.53 0.04 0.0
0.54 0.04 0.0
0.55 0.04 0.0
0.56 0.04 0.0
0.5700000000000001 0.04 0.0
0.58 0.04 0.0
0.59 0.04 0.0
0.6 0.04 0.0
0.61 0.04 0.0
0.62 0.04 0.0
0.63 0.04 0.0
0.64 0.04 0.0
0.65 0.04 0.0
0.66 0.04 0.0
0.67 0.04 0.0
0.68 0.04 0.0
0.6900000000000001 0.04 0.0
0.7000000000000001 0.04 0.0
0.71 0.04 0.0
0.72 0.04 0.0
0.73 0.04 0.0
0.74 0.04 0.0
0.75 0.04 0.0
0.76 0.04 0.0
0.77 0.04 0.0
0.78 0.04 0.0
0.79 0.04 0.0
0.8 0.04 0.0
0.81 0.04 0.0
0.8200000000000001 0.04 0.0
0.8300000000000001 0.04 0.0
0.84 0.04 0.0
0.85 0.04 0.0
0.86 0.04 0.0
0.87 0.04 0.0
0.88 0.04 0.0
0.89 0.04 0.0
0.9 0.04 0.0
0.91 0.04 0.0
0.92 0.04 0.0
0.93 0.04 0.0
0.9400000000000001 0.04 0.0
0.9500000000000001 0.04 0.0
0.96 0.04 0.0
0.97 0.04 0.0
0.98 0.04 0.0
0.99 0.04 0.0
1.0 0.04 0.0
0.0 0.05 0.0
0.01 0.05 0.0
0.02 0.05 0.0
0.03 0.05 0.0
0.04 0.05 0.0
0.05 0.05 0.0
0.06 0.05 0.0
0.07 0.05 0.0
0.08 0.05 0.0
0.09 0.05 0.0
0.1 0.05 0.0
0.11 0.05 0.0
0.12 0.05 0.0
0.13 0.05 0.0
0.14 0.05 0.0
0.15 0.05 0.0
0.16 0.05 0.0
0.17 0.05 0.0
0.18 0.05 0.0
0.19 0.05 0.0
0.2 0.05 0.0
0.21 0.05 0.0
0.22 0.05 0.0
0.23 0.05 0.0
0.24 0.05 0.0
0.25 0.05 0.0
0.26 0.05 0.0
0.27 0.05 0.0
0.28 0.05 0.0
0.29 0.05 0.0
0.3 0.05 0.0
0.31 0.05 0.0
0.32 0.05 0.0
0.33 0.05 0.0
0.34 0.05 0.0
0.35000000000000003 0.05 0.0
0.36 0.05 0.0
0.37 0.05 0.0
0.38 0.05 0.0
0.39 0.05 0.0
0.4 0.05 0.0
0.41000000000000003 0.05 0.0
0.42 0.05 0.0
0.43 0.05 0.0
0.44 0.05 0.0
0.45 0.05 0.0
0.46 0.05 0.0
0.47000000000000003 0.05 0.0
0.48 0.05 0.0
0.49 0.05 0.0
0.5 0.05 0.0
0.51 0.05 0.0
0.52 0.05 0.0
0.53 0.05 0.0
0.54 0.05 0.0
0.55 0.05 0.0
0.56 0.05 0.0
0.5700000000000001 0.05 0.0
0.58 0.05 0.0
0.59 0.05 0.0
0.6 0.05 0.0
0.61 0.05 0.0
0.62 0.05 0.0
0.63 0.05 0.0
0.64 0.05 0.0
0.65 0.05 0.0
0.66 0.05 0.0
0.67 0.05 0.0
0.68 0.05 0.0
0.6900000000000001 0.05 0.0
0.7000000000000001 0.05 0.0
0.71 0.05 0.0
0.72 0.05 0.0
0.73 0.05 0.0
0.74 0.05 0.0
0.75 0.05 0.0
0.76 0.05 0.0
0.77 0.05 0.0
0.78 0.05 0.0
0.79 0.05 0.0
0.8 0.05 0.0
0.81 0.05 0.0
0.8200000000000001 0.05 0.0
0.8300000000000001 0.05 0.0
0.84 0.05 0.0
0.85 0.05 0.0
0.86 0.05 0.0
0.87 0.05 0.0
0.88 0.05 0.0
0.89 0.05 0.0
0.9 0.05 0.0
0.91 0.05 0.0
0.92 0.05 0.0
0.93 0.05 0.0
0.9400000000000001 0.05 0.0
0.9500000000000001 0.05 0.0
0.96 0.05 0.0
0.97 0.05 0.0
0.98 0.05 0.0
0.99 0.05 0.0
1.0 0.05 0.0
0.0 0.06 0.0
0.01 0.06 0.0
0.02 0.06 0.0
0.03 0.06 0.0
0.04 0.06 0.0
0.05 0.06 0.0
0.06 0.06 0.0
0.07 0.06 0.0
0.08 0.06 0.0
0.09 0.06 0.0
0.1 0.06 0.0
0.11 0.06 0.0
0.12 0.06 0.0
0.13 0.06 0.0
0.14 0.06 0.0
0.15 0.06 0.0
0.16 0.06 0.0
0.17 0.06 0.0
0.18 0.06 0.0
0.19 0.06 0.0
0.2 0.06 0.0
0.21 0.06 0.0
0.22 0.06 0.0
0.23 0.06 0.0
0.24 0.06 0.0
0.25 0.06 0.0
0.26 0.06 0.0
0.27 0.06 0.0
0.28 0.06 0.0
0.29 0.06 0.0
0.3 0.06 0.0
0.31 0.06 0.0
0.32 0.06 0.0
0.33 0.06 0.0
0.34 0.06 0.0
0.35000000000000003 0.06 0.0
0.36 0.06 0.0
0.37 0.06 0.0
0.38 0.06 0.0
0.39 0.06 0.0
0.4 0.06 0.0
0.41000000000000003 0.06 0.0
0.42 0.06 0.0
0.43 0.06 0.0
0.44 0.06 0.0
0.45 0.06 0.0
0.46 0.06 0.0
[...]
POINT_DATA  10201
FIELD  FlowField  5
Density    1 10201  double
3.845418298227282
3.8542634987519477
3.872981953278111
3.892197751000587
3.910955590027859
3.9316858925944578
3.9578630242463007
3.9917874413764745
4.033748556202703
4.082422845128593
4.135749274659172
4.191671541329168
4.248540551748507
4.305243028635351
4.3611676669330555
4.416096841363316
4.470090708703232
4.52338940235375
4.576338857057098
4.6293383081939465
4.682805017112212
4.7371510572550335
4.792768501670137
4.850021502021816
4.909244056300173
4.970738713673287
5.034769197688611
5.101558465082465
5.1712979422966185
5.244152121476995
5.320255051695682
5.399721274477061
5.482656018225189
5.5691172516071425
5.659100869192182
5.752555647999418
5.849393714359993
5.949495002441406
6.052695474465495
6.158786298174265
6.267509800318571
6.37852919117781
6.491443618119147
6.605828017676476
6.721219698277391
6.837106165512381
6.952925272806924
7.068063999669224
7.18185433486898
7.2935653258671245
7.402391060974671
7.507434473173049
7.607687680700419
7.702010079598933
7.7891050800866495
7.867494246622417
7.93547089380875
7.991042185467321
8.031873642425758
8.05520707147127
8.057753948927338
8.035604535966351
7.984199918125391
7.89842096259223
7.772808880447758
7.60185025532543
7.380230149366965
7.103033059170787
6.7660076583587285
6.3660892628421095
5.902393315670379
5.377442316802586
4.79796603022044
4.175192950545231
3.5256807222630577
2.874366974546996
2.259815318365843
1.7352857570946119
1.3530617082342595
1.1317540516137257
1.0370547142901532
1.0082222859485515
1.0016004340584648
1.0002912647336486
1.000050486091132
1.000008381582949
1.0000013369723573
1.000000205478599
1.0000000305095815
1.0000000043881576
1.0000000006129273
1.0000000000833404
1.0000000000110552
1.000000000001433
1.0000000000001816
1.0000000000000222
1.0000000000000022
1.0
1.0
1.0
1.0
3.5822278807419625
3.5931690209913336
3.6181147205537187
3.646722014153143
3.6762373258703134
3.707485086084879
3.7428674902986376
3.7843184133048307
3.832293267236537
3.8858325769160915
3.943188605044757
4.0024877370692264
4.062162237139336
4.121124682111485
4.178765473714575
4.234860976721261
4.289466515688019
4.342827261589605
4.395303542212848
4.447313971250927
4.4992970835365975
4.551686225859787
4.604893840849851
4.659303142699045
4.71526604681883
4.7731035662361965
4.833098856383906
4.895489975843342
4.960477928332463
5.028234411608653
5.098906767696469
5.172627766123422
5.249501805440532
5.329580372927765
5.4128661360093275
5.499316979502172
5.588851788781282
5.681359669672121
5.776693726140795
5.874663442204799
5.975013778782004
6.07741726537245
6.181498318920659
6.2868419589961935
6.39297901727628
6.499376999063836
6.605437028810202
6.710489463893831
6.813786392747695
6.914484688289566
7.011616191219142
7.104061881177605
7.190526713819989
7.269502247928236
7.339225956731225
7.397645693321062
7.44239779703318
7.470802060103203
7.479868096295234
7.466296877704262
7.426470580046226
7.356458268211899
7.2521080045542945
7.109353682464702
6.924900491484081
6.697234401070406
6.427571946612099
6.120286207000811
5.783055080969456
5.425270725707844
5.053919677010937
4.670940850536823
4.273578670116953
3.8560411585350662
3.41247088106899
2.9421557464954544
2.4571843800897306
1.9889409123561514
1.584721141429227
1.2880136303986833
1.1123462276247262
1.033199794744145
1.0074858803253242
1.001420437930243
1.0002485233413698
1.0000413423292485
1.000006592684502
1.0000010115643279
1.0000001497905562
1.000000021466257
1.0000000029852245
1.0000000004038747
1.0000000000532823
1.0000000000068692
1.0000000000008669
1.0000000000001068
1.0000000000000124
1.000000000000001
1.0
1.0
1.0
3.0978939163084807
3.1067163779813085
3.1278221563327078
3.1535849543315684
3.181549470452474
3.2125242914635996
3.2486693231855037
3.2917871625924113
3.342406454593344
3.399673209979535
3.4617834699015937
3.5265915482919787
3.5921130471014138
3.6568041653620824
3.719642779529093
3.7800889964054334
3.8379887545624296
3.8934652732005777
3.946822140377935
3.9984657556710506
4.0488467939760895
4.09842474358801
4.147649377070916
4.196947438386123
4.246715684427103
4.297320487034366
4.349093384457601
4.402315723058953
4.457219568284889
4.514008494283855
4.5728705350707655
4.633963767771144
4.697393289629426
4.7632171437618585
4.831458719820579
4.902099863176625
4.975078621636032
5.050303178617844
5.127651665803832
5.206939707148939
5.2879024043340435
5.370213191462076
5.453476628788159
5.5371948335726335
5.620749622862026
5.7033898367247
5.784214582411195
5.86215541826968
5.935957900020056
6.004163201188943
6.0650896755744625
6.116812084975335
6.157135709853328
6.183566847179799
6.193290947261964
6.1831894286123905
6.14995167439122
6.090350271922636
6.001730575247166
5.882669829908014
5.7336632028720675
5.557709555736586
5.361123629510461
5.152727168678723
4.941122248542855
4.733184567528685
4.534333498957458
4.349186285864286
4.1815064622758715
4.0333752760982415
3.9039211585960776
3.787879690478431
3.674543149764085
3.547732797557612
3.387279066922539
3.1724255264392314
2.8877145350812197
2.5317387503850726
2.127079924605213
1.724198634184006
1.3879656319493066
1.164339038819564
1.052255942776361
1.0122441698903746
1.0022911731019575
1.0003863371786998
1.0000617224411705
1.0000094597389024
1.0000013971528052
1.0000001994910983
1.0000000276166379
1.0000000037166965
1.0000000004874912
1.000000000062458
1.0000000000078324
1.0000000000009628
1.000000000000116
1.000000000000013
1.000000000000001
1.0
1.0
2.791322326640959
2.7906069911441733
2.7874015665389575
2.780044706350573
2.7694861722536945
2.759831839906073
2.7561100148959503
2.762495583126615
2.7813319701640364
2.8129124581037463
2.8558401523554338
2.907685385342566
2.965656835076434
3.027106662115335
3.089821519455285
3.15213817551339
3.2129339659582232
3.2715464596907573
3.3276763206064572
3.381294158265506
3.432558445458681
3.481748637553893
3.5292131767152775
3.575330902075792
3.6204843586283864
3.6650442969535093
3.7093612129942626
3.7537462341700647
3.7984648096869558
3.843762484666735
3.8898579957894936
3.936913328676847
3.9850382533472004
4.034300717836645
4.084724301198158
4.136279848371572
4.188873924535009
4.242353346793808
4.296486986820997
4.3509265615117885
4.405211290918125
4.45876477220057
4.510860387647338
4.560596936140945
4.606881130389546
4.648412277105252
4.683673044545225
4.710932998491299
4.728275847013854
4.733669289990933
4.725100492578949
4.7007722091868365
4.659349673426043
4.60023894305727
4.523849694096477
4.432014307182619
4.3281368833802825
4.216300255563493
4.100354625127351
3.9838359393082547
3.870324096140558
3.7638565979322474
3.669004696309486
3.590594221296623
3.5330637252657473
3.499463871788111
3.4903768405906677
3.5031852220234576
3.5314301111994895
3.5656985997373924
3.596868863261268
3.617785201665215
3.622052258685142
3.602214369954071
3.548319535466589
3.4472447054653017
3.283303456996876
3.0414230632822106
2.7145860567963345
2.3158817043360456
1.8894501942085111
1.5055503241777848
1.228773117647808
1.0777534974444842
1.0190866558423937
1.0035602527823329
1.0005800830230656
1.000089050987609
1.0000131229164895
1.0000018667694817
1.0000002572133857
1.0000000344275615
1.0000000044883386
1.0000000005713257
1.0000000000711615
1.0000000000086893
1.0000000000010414
1.0000000000001223
1.0000000000000135
1.000000000000001
1.0
2.6728548349007433
2.6650409530310055
2.6425871865510073
2.606204680493352
2.5576023499971243
2.5019884480697954
2.4460682771752316
2.3963204461119254
2.3577864065207805
2.333453986630998
2.3242293870238337
2.3293500796699615
2.346987732423052
2.3748148948010135
2.410419304808647
2.4515538894961297
2.496261965298846
2.54292397806405
2.5902600749888975
2.637309837564381
2.6834007457262885
2.728104287518496
2.7711854391531725
2.812557222888125
2.8522403105770504
2.8903280167228997
2.9269590340700047
2.9622898521416396
2.9964840481772326
3.029705764418359
3.0620843345582833
3.0936983248511423
3.1245793748302484
3.1547035559294225
3.1839826471621446
3.2122567113745517
3.2392825891264923
3.2647175057081235
3.2880944041800535
3.3088324723922145
3.326263370874821
3.3396355421386903
3.3481448963196607
3.3509937545372033
3.3474610572389034
3.336986905726239
3.319268045642132
3.2943539321404653
3.2628155608135945
3.2257811532191
3.1846658184286425
3.140963008057296
3.096257647960832
3.0523263667171676
3.011271712602374
2.9756132389383767
2.9482527155110922
2.932279219677213
2.9305778522648334
2.9452708369256575
2.977119192122255
3.025000914776465
3.085122851529122
3.1517995913051955
3.2201130406958534
3.2872841911080934
3.352141086838591
3.414048793720733
3.4723159730256805
3.5260267974055
3.573887504191044
3.614003756495942
3.643552496973723
3.6583137207228753
3.6520396334580014
3.615693374568278
3.5367548741929733
3.3991939039510575
3.1854273007930733
2.882370006411658
2.4932803544957367
2.0525682318451195
1.6293755254704276
1.3018262242268968
1.1090271316465297
1.0281270238199542
1.005283565073394
1.0008347049692872
1.000123219363077
1.000017469102197
1.000002395146061
1.0000003187294009
1.000000041286146
1.0000000052191882
1.000000000645391
1.0000000000782265
1.00000000000931
1.0000000000010894
1.0000000000001252
1.0000000000000138
1.0000000000000027
2.6099054716923393
2.5999924386322766
2.5716600772276865
2.5257209072479685
2.4630477418767027
2.3877495812813234
2.305574018030721
2.2226422013278055
2.1444694549783545
2.075270799748644
2.0176314722276234
1.9725741324695467
1.9399103336746897
1.9186837673534654
1.9075507261006197
1.9050365887423917
1.909679841490181
1.9201023798120005
1.9350410658878965
1.9533616544117405
1.9740649957710728
1.996289327926878
2.0193087191258643
2.042527059423792
2.065467882575784
2.0877603742284125
2.109121462737559
2.1293410591956516
2.148279788896418
2.1658378474734823
2.1819225206345845
2.196447924127032
2.2093293113311865
2.220477563394397
2.229801521730661
2.2372200654684304
2.242672445046892
2.2460943315823867
2.2474355154632892
2.246727669603927
2.2441112486169517
2.2398629143150512
2.234418584919444
2.2283500266190486
2.2223423920795904
2.2172005512877444
2.2138670312798143
2.2134416280829767
2.2171873733736795
2.2265046585871
2.2428549998545604
2.267619570845932
2.301899420613201
2.3462900779941394
2.400671882318563
2.4638411597836383
2.5334046811060937
2.606723755533943
2.6818873741341602
2.757849960369941
2.8341171475996623
2.9103454536537776
2.986185636033595
3.0612718801445964
3.1352241154453786
3.2076491278229096
3.278137004436796
3.3462491315238005
3.411492541931622
3.4732731190678443
3.530816654277447
3.58304183264909
3.6283620784870574
3.6643846236197555
3.6874670447113673
3.6920924668974036
3.6700567268142974
3.609579931106298
3.4947890491707323
3.306700873152366
3.0278792901004334
2.6533065222769645
2.2071510198246087
1.753742946431558
1.3801032577946188
1.1449218347507637
1.039222804732273
1.007475099299033
1.0011494803044698
1.00016333395675
1.0000222943966688
1.000002948747318
1.0000003793513348
1.0000000476044844
1.000000005841583
1.000000000702481
1.0000000000829443
1.0000000000096312
1.0000000000011011
1.0000000000001248
1.0000000000000262
2.5451269016776283
2.5348531215709156
2.505632239538032
2.4583967339777666
2.3936634238512355
2.314805470975867
2.226623826795948
2.134369122744621
2.0430118594240834
1.9566489145721602
1.8781101240108207
1.8088654745378747
1.749230493645551
1.6987419912734103
1.6565408757741626
1.6216549562271791
1.5931557718359284
1.5702165351850503
1.5521133326338061
1.5382039363165316
1.5279049437852281
1.5206765573409706
1.516016315145211
1.5134596048884181
1.5125843355192083
1.5130165165107299
1.5144325108773935
1.5165715669973285
1.5192479307760567
1.5223250390752594
1.5257052431714837
1.5293455557371196
1.533259280302425
1.5375188630335332
1.5422631072815978
1.5477117673598606
1.5541552188255934
1.5619254250482997
1.5714257441975108
1.5831571128882889
1.5976936393171375
1.6156586868663025
1.6376943997952715
1.6644181887408902
1.6963673491937212
1.733935509134958
1.7773082468241403
1.826404545193397
1.8807502147026058
1.939487138661262
2.0016944312362352
2.0666532516067155
2.1338901631553577
2.2031308786371877
2.274209325039734
2.3469843170991918
2.4213034936196585
2.4969940840564413
2.573856798185542
2.651661165356656
2.7301427732151184
2.809002796818837
2.8879099596679563
2.9665047422908213
3.0444052251469906
3.121213420686855
3.1965204057853267
3.269907716287124
3.340941547480407
3.409154906423165
3.474010634699349
3.534835230928528
3.5907082832992065
3.640285440805255
3.6815230465637905
3.711261700654491
3.7246193991508942
3.7141599901308213
3.668886132028368
3.5733753079490356
3.40799822181875
3.1522935695505647
2.7945636782278687
2.3492687019214915
1.8737789098289928
1.4598859749257023
1.1836874557093133
1.051904029159712
1.010071902250713
1.0015131486597635
1.000207205638257
1.0000272559478192
1.0000034812728402
1.0000004334550705
1.0000000527565238
1.0000000062913281
1.0000000007365735
1.0000000000848115
1.0000000000096188
1.0000000000010836
1.0000000000002292
2.4710736772309554
2.4607289313863547
2.4315178914121005
2.3846707419112736
2.320656611952388
2.242475454311709
2.154343676642929
2.0608856840270153
1.9666197899857387
1.875490413881908
1.7904738779406106
1.7133661233146946
1.6448246538451288
1.5846253115283322
1.5320110797877566
1.4860098600463558
1.445655086137643
1.4101029850667264
1.3786726920082932
1.3508412323264007
1.3262183859249657
1.3045169748640295
1.2855261295403344
1.2690904955095406
1.2550962889957624
1.2434626840004412
1.2341356830338792
1.227106661562502
1.2224136517895319
1.2201068575872114
1.220248861957549
1.2229300290808052
1.2282692741601142
1.236413997398262
1.247543495850954
1.2618594644538763
1.2795468866853064
1.3007702648429977
1.3256885857053784
1.354429708867979
1.3870610850536025
1.4235571418316173
1.4637867039759205
1.507553236160555
1.5546396137564762
1.6048294820280358
1.6579185735447164
1.713718842275472
1.7720588791639136
1.8327836232096018
1.8957545604390593
1.9608501745343516
2.0279650965397273
2.097006903720108
2.1678908988495165
2.2405331557177464
2.314842241810446
2.3907103383299604
2.4680045159091666
2.5465588558198524
2.6261681845835465
2.706584145392593
2.787514136356496
2.868623400189433
2.9495401806882984
3.02986337484035
3.1091716409883126
3.187032188938702
3.2630068011055102
3.3366517679721737
3.407506898777961
3.4750672454339995
3.5387277735064675
3.5976869806317584
3.6507881234371404
3.6962667500458726
3.731360371121887
3.751724136156101
3.750598979576579
3.7177347565913728
3.638285076960193
3.492439526928433
3.257699228537157
2.917135849906424
2.476587161645906
1.9855902689110956
1.5375447979199983
1.2232084568055999
1.0654168023314692
1.0129224565492894
1.0019021230928145
1.000251340160683
1.0000318975501874
1.0000039390990305
1.0000004752808023
1.0000000561761468
1.0000000065182397
1.000000000743841
1.000000000083622
1.0000000000093414
1.0000000000019598
2.3899166474405886
2.37944720220509
2.350144336531975
2.3036736539698133
2.2406046707580636
2.163735909025628
2.0769020001853207
1.9842356471054041
1.8898089759687748
1.797319403826714
1.7097622353215276
1.629183615340064
1.556606522323423
1.4921567002508391
1.4353267649747117
1.385273493380736
1.3410630311695533
1.301828750866757
1.2668481114785946
1.2355631361535089
1.2075697691922822
1.182594502016956
1.1604684868959334
1.1411036417008773
1.1244725639976467
1.1105909361473998
1.0995069745463728
1.091320159682734
1.0861526087394182
1.0841033763856178
1.0852579289156883
1.089692628984227
1.0974736467692086
1.1086638907094017
1.1233195802857239
1.1414647244515521
1.1630953868684557
1.1882061879789436
1.2167857497874162
1.248806691335484
1.2842253166677207
1.3229785679814834
1.3649814454445743
1.410125049744909
1.4582762751383465
1.5092805856617062
1.562968256610972
1.6191633429893804
1.6776938458102886
1.7384013012021686
1.8011482874761429
1.865822899264446
1.932339825460394
2.0006381942922395
2.0706764381310307
2.1424245834748596
2.215854795378106
2.2909308604642717
2.3675971598285326
2.4457678333303825
2.5253169390463164
2.6060704636825407
2.6878010160742996
2.770225915920754
2.8530091299945504
2.93576708954255
3.0180779721718802
3.09949336776853
3.179550531088955
3.2577829003056804
3.3337251945623465
3.406908892906126
3.476841443242362
3.5429604561476715
3.6045492649074444
3.660593690290071
3.7095493642943915
3.7489748593151835
3.774970578238477
3.781355563453962
3.758550167943172
3.6923020016492183
3.562872958681692
3.346412088458012
3.0219567536186354
2.588004936924954
2.086319654833711
1.6098414829114578
1.26125370456014
1.0788180467657864
1.0157974076753553
1.0022815604487294
1.000291281642822
1.0000357120846195
1.0000042698626708
1.0000004999319865
1.0000000574594141
1.000000006495372
1.0000000007234122
1.0000000000800668
1.0000000000166547
2.3044365179046973
2.293723647450282
2.2640261640731505
2.217547355130919
2.155053968631478
2.079251253551967
1.9937378490217639
1.902296499688915
1.8085955968923249
1.7160084671816578
1.6273972088094895
1.5448922583651008
1.4697657427283715
1.4024553542642022
1.342731908898058
1.2899441366710676
1.2432588144052334
1.201841618659207
1.1649637305351133
1.1320463609355365
1.102665030037507
1.0765334851007644
1.0534800427943571
1.033422507957845
1.0163443673929318
1.0022705615047367
0.9912761365240391
0.983484854340359
0.9790079752753325
0.9779215475538718
0.9802822255503978
0.9861286083259972
0.9954928877832896
1.0083932436950527
1.0248193176453135
1.044742978511248
1.0681400340733327
1.0949922741222953
1.1252708926903492
1.158932195426881
1.1959170775518015
1.236147488249597
1.2795209580226954
1.3259072594893742
1.3751480453915694
1.4270606238211332
1.4814461216863786
1.538101028213116
1.596830147964245
1.6574587285921523
1.719841944463311
1.783870688190766
1.8494733889458606
1.9166141246319524
1.985287579457761
2.0555114610735585
2.1273169501114
2.200737603402339
2.275797145943825
2.3524967226716096
2.430802255544694
2.510632695830592
2.5918501287535953
2.674252772443632
2.7575718431380936
2.841472933938724
2.925562159277867
3.009396822634222
3.092499331279493
3.174372969909436
3.254516410635201
3.332434071661997
3.4076372695487502
3.479630374065846
3.5478728398390187
3.6117050249045235
3.67021839195647
3.722039255643307
3.764982309673915
3.795510291802196
3.8079222475430026
3.7932125418333618
3.7376749855106697
3.621749216426017
3.4206719744318024
3.1103725839155834
2.68327406212841
2.174033489341302
1.6740852625015834
1.295693879323057
1.091093577444556
1.018420490308858
1.002609842585976
1.0003223053865988
1.0000382309021572
1.0000044322972184
1.0000005043223192
1.000000056443483
1.0000000062247862
1.0000000006822392
1.0000000001406122
2.216794166442282
2.205722942882132
2.175324476299573
2.128410302351763
2.0660105676778815
1.9908177809513807
1.9062969627313493
1.8160056739886596
1.7233062469984564
1.6312449231943884
1.5424552740390187
1.4590139929516717
1.3823091748999934
1.313003425889604
1.2511170122350386
1.196205773795163
1.1475726264827733
1.104452950699904
1.066141870962056
1.0320607549070075
1.0017775754888045
0.9750000200497064
0.9515555774736645
0.9313657642570307
0.9144157969182072
0.9007452880750467
0.8904633514608578
0.8836908494082475
0.8805018911567015
0.8809383072034732
0.885021801655884
0.892760774670543
0.9041389603150402
0.9191135874594697
0.9376355394831075
0.9596641167780283
0.9851644343390696
1.0140965405126463
1.0464114652665732
1.0820458232745591
1.1209190127529913
1.162930995914669
1.2079560412244463
1.2558378834244208
1.3063887366482971
1.3593935425463055
1.4146198460370702
1.4718320008228796
1.53080709477779
1.5913496763175026
1.6533030300454346
1.7165558837334784
1.7810444859443464
1.8467506739890165
1.9136968201851963
1.981938477443795
2.0515553056674047
2.122640582625195
2.195289438171468
2.269585913583502
2.345589115480727
2.423319008776507
2.502742694521036
2.5837623377783703
2.666206106224806
2.7498233022825467
2.8342846573277805
2.9191885864457316
3.0040725806262594
3.088429602820351
3.1717267316951703
3.253424049768504
3.3329891044366367
3.4099037164533694