# vtk DataFile Version 3.0 
shock_diffraction_time_series_153_.vtk
ASCII
DATASET UNSTRUCTURED_GRID
POINTS         10201 double
0.0 0.0 0.0
0.01 0.0 0.0
0.02 0.0 0.0
0.03 0.0 0.0
0.04 0.0 0.0
0.05 0.0 0.0
0.06 0.0 0.0
0.07 0.0 0.0
0.08 0.0 0.0
0.09 0.0 0.0
0.1 0.0 0.0
0.11 0.0 0.0
0.12 0.0 0.0
0.13 0.0 0.0
0.14 0.0 0.0
0.15 0.0 0.0
0.16 0.0 0.0
0.17 0.0 0.0
0.18 0.0 0.0
0.19 0.0 0.0
0.2 0.0 0.0
0.21 0.0 0.0
0.22 0.0 0.0
0.23 0.0 0.0
0.24 0.0 0.0
0.25 0.0 0.0
0.26 0.0 0.0
0.27 0.0 0.0
0.28 0.0 0.0
0.29 0.0 0.0
0.3 0.0 0.0
0.31 0.0 0.0
0.32 0.0 0.0
0.33 0.0 0.0
0.34 0.0 0.0
0.35000000000000003 0.0 0.0
0.36 0.0 0.0
0.37 0.0 0.0
0.38 0.0 0.0
0.39 0.0 0.0
0.4 0.0 0.0
0.41000000000000003 0.0 0.0
0.42 0.0 0.0
0.43 0.0 0.0
0.44 0.0 0.0
0.45 0.0 0.0
0.46 0.0 0.0
0.47000000000000003 0.0 0.0
0.48 0.0 0.0
0.49 0.0 0.0
0.5 0.0 0.0
0.51 0.0 0.0
0.52 0.0 0.0
0.53 0.0 0.0
0.54 0.0 0.0
0.55 0.0 0.0
0.56 0.0 0.0
0.5700000000000001 0.0 0.0
0.58 0.0 0.0
0.59 0.0 0.0
0.6 0.0 0.0
0.61 0.0 0.0
0.62 0.0 0.0
0.63 0.0 0.0
0.64 0.0 0.0
0.65 0.0 0.0
0.66 0.0 0.0
0.67 0.0 0.0
0.68 0.0 0.0
0.6900000000000001 0.0 0.0
0.7000000000000001 0.0 0.0
0.71 0.0 0.0
0.72 0.0 0.0
0.73 0.0 0.0
0.74 0.0 0.0
0.75 0.0 0.0
0.76 0.0 0.0
0.77 0.0 0.0
0.78 0.0 0.0
0.79 0.0 0.0
0.8 0.0 0.0
0.81 0.0 0.0
0.8200000000000001 0.0 0.0
0.8300000000000001 0.0 0.0
0.84 0.0 0.0
0.85 0.0 0.0
0.86 0.0 0.0
0.87 0.0 0.0
0.88 0.0 0.0
0.89 0.0 0.0
0.9 0.0 0.0
0.91 0.0 0.0
0.92 0.0 0.0
0.93 0.0 0.0
0.9400000000000001 0.0 0.0
0.9500000000000001 0.0 0.0
0.96 0.0 0.0
0.97 0.0 0.0
0.98 0.0 0.0
0.99 0.0 0.0
1.0 0.0 0.0
0.0 0.01 0.0
0.01 0.01 0.0
0.02 0.01 0.0
0.03 0.01 0.0
0.04 0.01 0.0
0.05 0.01 0.0
0.06 0.01 0.0
0.07 0.01 0.0
0.08 0.01 0.0
0.09 0.01 0.0
0.1 0.01 0.0
0.11 0.01 0.0
0.12 0.01 0.0
0.13 0.01 0.0
0.14 0.01 0.0
0.15 0.01 0.0
0.16 0.01 0.0
0.17 0.01 0.0
0.18 0.01 0.0
0.19 0.01 0.0
0.2 0.01 0.0
0.21 0.01 0.0
0.22 0.01 0.0
0.23 0.01 0.0
0.24 0.01 0.0
0.25 0.01 0.0
0.26 0.01 0.0
0.27 0.01 0.0
0.28 0.01 0.0
0.29 0.01 0.0
0.3 0.01 0.0
0.31 0.01 0.0
0.32 0.01 0.0
0.33 0.01 0.0
0.34 0.01 0.0
0.35000000000000003 0.01 0.0
0.36 0.01 0.0
0.37 0.01 0.0
0.38 0.01 0.0
0.39 0.01 0.0
0.4 0.01 0.0
0.41000000000000003 0.01 0.0
0.42 0.01 0.0
0.43 0.01 0.0
0.44 0.01 0.0
0.45 0.01 0.0
0.46 0.01 0.0
0.47000000000000003 0.01 0.0
0.48 0.01 0.0
0.49 0.01 0.0
0.5 0.01 0.0
0.51 0.01 0.0
0.52 0.01 0.0
0.53 0.01 0.0
0.54 0.01 0.0
0.55 0.01 0.0
0.56 0.01 0.0
0.5700000000000001 0.01 0.0
0.58 0.01 0.0
0.59 0.01 0.0
0.6 0.01 0.0
0.61 0.01 0.0
0.62 0.01 0.0
0.63 0.01 0.0
0.64 0.01 0.0
0.65 0.01 0.0
0.66 0.01 0.0
0.67 0.01 0.0
0.68 0.01 0.0
0.6900000000000001 0.01 0.0
0.7000000000000001 0.01 0.0
0.71 0.01 0.0
0.72 0.01 0.0
0.73 0.01 0.0
0.74 0.01 0.0
0.75 0.01 0.0
0.76 0.01 0.0
0.77 0.01 0.0
0.78 0.01 0.0
0.79 0.01 0.0
0.8 0.01 0.0
0.81 0.01 0.0
0.8200000000000001 0.01 0.0
0.8300000000000001 0.01 0.0
0.84 0.01 0.0
0.85 0.01 0.0
0.86 0.01 0.0
0.87 0.01 0.0
0.88 0.01 0.0
0.89 0.01 0.0
0.9 0.01 0.0
0.91 0.01 0.0
0.92 0.01 0.0
0.93 0.01 0.0
0.9400000000000001 0.01 0.0
0.9500000000000001 0.01 0.0
0.96 0.01 0.0
0.97 0.01 0.0
0.98 0.01 0.0
0.99 0.01 0.0
1.0 0.01 0.0
0.0 0.02 0.0
0.01 0.02 0.0
0.02 0.02 0.0
0.03 0.02 0.0
0.04 0.02 0.0
0.05 0.02 0.0
0.06 0.02 0.0
0.07 0.02 0.0
0.08 0.02 0.0
0.09 0.02 0.0
0.1 0.02 0.0
0.11 0.02 0.0
0.12 0.02 0.0
0.13 0.02 0.0
0.14 0.02 0.0
0.15 0.02 0.0
0.16 0.02 0.0
0.17 0.02 0.0
0.18 0.02 0.0
0.19 0.02 0.0
0.2 0.02 0.0
0.21 0.02 0.0
0.22 0.02 0.0
0.23 0.02 0.0
0.24 0.02 0.0
0.25 0.02 0.0
0.26 0.02 0.0
0.27 0.02 0.0
0.28 0.02 0.0
0.29 0.02 0.0
0.3 0.02 0.0
0.31 0.02 0.0
0.32 0.02 0.0
0.33 0.02 0.0
0.34 0.02 0.0
0.35000000000000003 0.02 0.0
0.36 0.02 0.0
0.37 0.02 0.0
0.38 0.02 0.0
0.39 0.02 0.0
0.4 0.02 0.0
0.41000000000000003 0.02 0.0
0.42 0.02 0.0
0.43 0.02 0.0
0.44 0.02 0.0
0.45 0.02 0.0
0.46 0.02 0.0
0.47000000000000003 0.02 0.0
0.48 0.02 0.0
0.49 0.02 0.0
0.5 0.02 0.0
0.51 0.02 0.0
0.52 0.02 0.0
0.53 0.02 0.0
0.54 0.02 0.0
0.55 0.02 0.0
0.56 0.02 0.0
0.5700000000000001 0.02 0.0
0.58 0.02 0.0
0.59 0.02 0.0
0.6 0.02 0.0
0.61 0.02 0.0
0.62 0.02 0.0
0.63 0.02 0.0
0.64 0.02 0.0
0.65 0.02 0.0
0.66 0.02 0.0
0.67 0.02 0.0
0.68 0.02 0.0
0.6900000000000001 0.02 0.0
0.7000000000000001 0.02 0.0
0.71 0.02 0.0
0.72 0.02 0.0
0.73 0.02 0.0
0.74 0.02 0.0
0.75 0.02 0.0
0.76 0.02 0.0
0.77 0.02 0.0
0.78 0.02 0.0
0.79 0.02 0.0
0.8 0.02 0.0
0.81 0.02 0.0
0.8200000000000001 0.02 0.0
0.8300000000000001 0.02 0.0
0.84 0.02 0.0
0.85 0.02 0.0
0.86 0.02 0.0
0.87 0.02 0.0
0.88 0.02 0.0
0.89 0.02 0.0
0.9 0.02 0.0
0.91 0.02 0.0
0.92 0.02 0.0
0.93 0.02 0.0
0.9400000000000001 0.02 0.0
0.9500000000000001 0.02 0.0
0.96 0.02 0.0
0.97 0.02 0.0
0.98 0.02 0.0
0.99 0.02 0.0
1.0 0.02 0.0
0.0 0.03 0.0
0.01 0.03 0.0
0.02 0.03 0.0
0.03 0.03 0.0
0.04 0.03 0.0
0.05 0.03 0.0
0.06 0.03 0.0
0.07 0.03 0.0
0.08 0.03 0.0
0.09 0.03 0.0
0.1 0.03 0.0
0.11 0.03 0.0
0.12 0.03 0.0
0.13 0.03 0.0
0.14 0.03 0.0
0.15 0.03 0.0
0.16 0.03 0.0
0.17 0.03 0.0
0.18 0.03 0.0
0.19 0.03 0.0
0.2 0.03 0.0
0.21 0.03 0.0
0.22 0.03 0.0
0.23 0.03 0.0
0.24 0.03 0.0
0.25 0.03 0.0
0.26 0.03 0.0
0.27 0.03 0.0
0.28 0.03 0.0
0.29 0.03 0.0
0.3 0.03 0.0
0.31 0.03 0.0
0.32 0.03 0.0
0.33 0.03 0.0
0.34 0.03 0.0
0.35000000000000003 0.03 0.0
0.36 0.03 0.0
0.37 0.03 0.0
0.38 0.03 0.0
0.39 0.03 0.0
0.4 0.03 0.0
0.41000000000000003 0.03 0.0
0.42 0.03 0.0
0.43 0.03 0.0
0.44 0.03 0.0
0.45 0.03 0.0
0.46 0.03 0.0
0.47000000000000003 0.03 0.0
0.48 0.03 0.0
0.49 0.03 0.0
0.5 0.03 0.0
0.51 0.03 0.0
0.52 0.03 0.0
0.53 0.03 0.0
0.54 0.03 0.0
0.55 0.03 0.0
0.56 0.03 0.0
0.5700000000000001 0.03 0.0
0.58 0.03 0.0
0.59 0.03 0.0
0.6 0.03 0.0
0.61 0.03 0.0
0.62 0.03 0.0
0.63 0.03 0.0
0.64 0.03 0.0
0.65 0.03 0.0
0.66 0.03 0.0
0.67 0.03 0.0
0.68 0.03 0.0
0.6900000000000001 0.03 0.0
0.7000000000000001 0.03 0.0
0.71 0.03 0.0
0.72 0.03 0.0
0.73 0.03 0.0
0.74 0.03 0.0
0.75 0.03 0.0
0.76 0.03 0.0
0.77 0.03 0.0
0.78 0.03 0.0
0.79 0.03 0.0
0.8 0.03 0.0
0.81 0.03 0.0
0.8200000000000001 0.03 0.0
0.8300000000000001 0.03 0.0
0.84 0.03 0.0
0.85 0.03 0.0
0.86 0.03 0.0
0.87 0.03 0.0
0.88 0.03 0.0
0.89 0.03 0.0
0.9 0.03 0.0
0.91 0.03 0.0
0.92 0.03 0.0
0.93 0.03 0.0
0.9400000000000001 0.03 0.0
0.9500000000000001 0.03 0.0
0.96 0.03 0.0
0.97 0.03 0.0
0.98 0.03 0.0
0.99 0.03 0.0
1.0 0.03 0.0
0.0 0.04 0.0
0.01 0.04 0.0
0.02 0.04 0.0
0.03 0.04 0.0
0.04 0.04 0.0
0.05 0.04 0.0
0.06 0.04 0.0
0.07 0.04 0.0
0.08 0.04 0.0
0.09 0.04 0.0
0.1 0.04 0.0
0.11 0.04 0.0
0.12 0.04 0.0
0.13 0.04 0.0
0.14 0.04 0.0
0.15 0.04 0.0
0.16 0.04 0.0
0.17 0.04 0.0
0.18 0.04 0.0
0.19 0.04 0.0
0.2 0.04 0.0
0.21 0.04 0.0
0.22 0.04 0.0
0.23 0.04 0.0
0.24 0.04 0.0
0.25 0.04 0.0
0.26 0.04 0.0
0.27 0.04 0.0
0.28 0.04 0.0
0.29 0.04 0.0
0.3 0.04 0.0
0.31 0.04 0.0
0.32 0.04 0.0
0.33 0.04 0.0
0.34 0.04 0.0
0.35000000000000003 0.04 0.0
0.36 0.04 0.0
0.37 0.04 0.0
0.38 0.04 0.0
0.39 0.04 0.0
0.4 0.04 0.0
0.41000000000000003 0.04 0.0
0.42 0.04 0.0
0.43 0.04 0.0
0.44 0.04 0.0
0.45 0.04 0.0
0.46 0.04 0.0
0.47000000000000003 0.04 0.0
0.48 0.04 0.0
0.49 0.04 0.0
0.5 0.04 0.0
0.51 0.04 0.0
0.52 0.04 0.0
0.53 0.04 0.0
0.54 0.04 0.0
0.55 0.04 0.0
0.56 0.04 0.0
0.5700000000000001 0.04 0.0
0.58 0.04 0.0
0.59 0.04 0.0
0.6 0.04 0.0
0.61 0.04 0.0
0.62 0.04 0.0
0.63 0.04 0.0
0.64 0.04 0.0
0.65 0.04 0.0
0.66 0.04 0.0
0.67 0.04 0.0
0.68 0.04 0.0
0.6900000000000001 0.04 0.0
0.7000000000000001 0.04 0.0
0.71 0.04 0.0
0.72 0.04 0.0
0.73 0.04 0.0
0.74 0.04 0.0
0.75 0.04 0.0
0.76 0.04 0.0
0.77 0.04 0.0
0.78 0.04 0.0
0.79 0.04 0.0
0.8 0.04 0.0
0.81 0.04 0.0
0.8200000000000001 0.04 0.0
0.8300000000000001 0.04 0.0
0.84 0.04 0.0
0.85 0.04 0.0
0.86 0.04 0.0
0.87 0.04 0.0
0.88 0.04 0.0
0.89 0.04 0.0
0.9 0.04 0.0
0.91 0.04 0.0
0.92 0.04 0.0
0.93 0.04 0.0
0.9400000000000001 0.04 0.0
0.9500000000000001 0.04 0.0
0.96 0.04 0.0
0.97 0.04 0.0
0.98 0.04 0.0
0.99 0.04 0.0
1.0 0.04 0.0
0.0 0.05 0.0
0.01 0.05 0.0
0.02 0.05 0.0
0.03 0.05 0.0
0.04 0.05 0.0
0.05 0.05 0.0
0.06 0.05 0.0
0.07 0.05 0.0
0.08 0.05 0.0
0.09 0.05 0.0
0.1 0.05 0.0
0.11 0.05 0.0
0.12 0.05 0.0
0.13 0.05 0.0
0.14 0.05 0.0
0.15 0.05 0.0
0.16 0.05 0.0
0.17 0.05 0.0
0.18 0.05 0.0
0.19 0.05 0.0
0.2 0.05 0.0
0.21 0.05 0.0
0.22 0.05 0.0
0.23 0.05 0.0
0.24 0.05 0.0
0.25 0.05 0.0
0.26 0.05 0.0
0.27 0.05 0.0
0.28 0.05 0.0
0.29 0.05 0.0
0.3 0.05 0.0
0.31 0.05 0.0
0.32 0.05 0.0
0.33 0.05 0.0
0.34 0.05 0.0
0.35000000000000003 0.05 0.0
0.36 0.05 0.0
0.37 0.05 0.0
0.38 0.05 0.0
0.39 0.05 0.0
0.4 0.05 0.0
0.41000000000000003 0.05 0.0
0.42 0.05 0.0
0.43 0.05 0.0
0.44 0.05 0.0
0.45 0.05 0.0
0.46 0.05 0.0
0.47000000000000003 0.05 0.0
0.48 0.05 0.0
0.49 0.05 0.0
0.5 0.05 0.0
0.51 0.05 0.0
0.52 0.05 0.0
0.53 0.05 0.0
0.54 0.05 0.0
0.55 0.05 0.0
0.56 0.05 0.0
0.5700000000000001 0.05 0.0
0.58 0.05 0.0
0.59 0.05 0.0
0.6 0.05 0.0
0.61 0.05 0.0
0.62 0.05 0.0
0.63 0.05 0.0
0.64 0.05 0.0
0.65 0.05 0.0
0.66 0.05 0.0
0.67 0.05 0.0
0.68 0.05 0.0
0.6900000000000001 0.05 0.0
0.7000000000000001 0.05 0.0
0.71 0.05 0.0
0.72 0.05 0.0
0.73 0.05 0.0
0.74 0.05 0.0
0.75 0.05 0.0
0.76 0.05 0.0
0.77 0.05 0.0
0.78 0.05 0.0
0.79 0.05 0.0
0.8 0.05 0.0
0.81 0.05 0.0
0.8200000000000001 0.05 0.0
0.8300000000000001 0.05 0.0
0.84 0.05 0.0
0.85 0.05 0.0
0.86 0.05 0.0
0.87 0.05 0.0
0.88 0.05 0.0
0.89 0.05 0.0
0.9 0.05 0.0
0.91 0.05 0.0
0.92 0.05 0.0
0.93 0.05 0.0
0.9400000000000001 0.05 0.0
0.9500000000000001 0.05 0.0
0.96 0.05 0.0
0.97 0.05 0.0
0.98 0.05 0.0
0.99 0.05 0.0
1.0 0.05 0.0
0.0 0.06 0.0
0.01 0.06 0.0
0.02 0.06 0.0
0.03 0.06 0.0
0.04 0.06 0.0
0.05 0.06 0.0
0.06 0.06 0.0
0.07 0.06 0.0
0.08 0.06 0.0
0.09 0.06 0.0
0.1 0.06 0.0
0.11 0.06 0.0
0.12 0.06 0.0
0.13 0.06 0.0
0.14 0.06 0.0
0.15 0.06 0.0
0.16 0.06 0.0
0.17 0.06 0.0
0.18 0.06 0.0
0.19 0.06 0.0
0.2 0.06 0.0
0.21 0.06 0.0
0.22 0.06 0.0
0.23 0.06 0.0
0.24 0.06 0.0
0.25 0.06 0.0
0.26 0.06 0.0
0.27 0.06 0.0
0.28 0.06 0.0
0.29 0.06 0.0
0.3 0.06 0.0
0.31 0.06 0.0
0.32 0.06 0.0
0.33 0.06 0.0
0.34 0.06 0.0
0.35000000000000003 0.06 0.0
0.36 0.06 0.0
0.37 0.06 0.0
0.38 0.06 0.0
0.39 0.06 0.0
0.4 0.06 0.0
0.41000000000000003 0.06 0.0
0.42 0.06 0.0
0.43 0.06 0.0
0.44 0.06 0.0
0.45 0.06 0.0
0.46 0.06 0.0
[...]
POINT_DATA  10201
FIELD  FlowField  5
Density    1 10201  double
4.081382086402175
4.0787966404298865
4.065261672648969
4.032128204585204
3.9772580746053805
3.9028710994557523
3.8116583719474217
3.705660623049541
3.586418728771258
3.4554748801372885
3.3149522813821295
3.168141298927085
3.019858483120031
2.8762402690010864
2.743770925327005
2.627825208639301
2.531471237058883
2.4551816823062036
2.397454904423812
2.355806691977213
2.3275982208272024
2.3104978552304267
2.3026385196681805
2.302606447327971
2.309364731022489
2.3221657843123094
2.3404738561773537
2.36390271185976
2.392167573111818
2.425048936283747
2.4623659553064297
2.503957460394146
2.5496690799276474
2.5993452971833473
2.652825457772372
2.7099428384516786
2.7705261476550387
2.83440287974794
2.9014039677486014
2.971368944419588
3.0441509415699888
3.1196211270293936
3.1976724930083935
3.2782230890416892
3.3612181175722005
3.446630439251535
3.534459070940261
3.624725295056055
3.7174661265524342
3.8127247680982985
3.9105394105870346
4.01093619012329
4.113907383866273
4.219381942589209
4.327210940500423
4.437157329620078
4.548891382056608
4.661997023741059
4.775989901593473
4.890342433970116
5.004507320258339
5.117963356054755
5.230261945997282
5.341045451944398
5.450058888161481
5.557153454491713
5.662280567504419
5.76547896835835
5.8668576696076125
5.966577166161871
6.06483083650723
6.161827976403018
6.257779479946074
6.352886800307813
6.447334486445003
6.541286307053589
6.634884686410851
6.728252863881761
6.821498958654153
6.914721060449632
7.0080124486342275
7.101466243981754
7.195180027772091
7.2892726775427406
7.384049913332047
7.481783743037832
7.60525418644837
7.950149080373627
9.325088533461491
12.534385759119404
16.75235952886183
20.38364330162628
22.864008046958308
24.438828626844398
25.478662873954768
26.220392199675672
26.756476745921972
27.082143937116598
27.151527909043587
26.980016262444906
26.844261150557944
4.070671440841099
4.067407549029329
4.052085408727379
4.0164436027599475
3.958614461721167
3.8810987897764644
3.7868954938592125
3.6783373000777795
3.557197028806176
3.4251773239112615
3.284484978947721
3.138390183641614
2.991545856409157
2.849773742425706
2.7191606321968615
2.6047323295557323
2.5093704024014905
2.4335451286207377
2.3758715710806735
2.3340143843843375
2.3054592636330296
2.287957111871803
2.2796864532629675
2.27925371458296
2.2856268310171184
2.298054363312523
2.3159918144878633
2.339041264173603
2.366904226350752
2.399345908570711
2.4361689189315983
2.4771946815860972
2.5222510794046444
2.5711650930490526
2.623758785617744
2.6798476686986548
2.739242652561457
2.8017541983948107
2.8671964984506393
2.935391753221409
3.006175093491554
3.0794013595306566
3.1549525049732
3.2327402155394536
3.3127051767168463
3.3948169427714907
3.4790722853497114
3.5654915645814484
3.654113438002297
3.7449871419469014
3.838164800539449
3.9336970314958934
4.031610057910627
4.131877903439129
4.234409713050629
4.339037382004849
4.445507620187756
4.553483162472682
4.6625548212766414
4.772257814818447
4.882092838073035
4.991575251514301
5.100279321693628
5.207855973125475
5.3140476068157545
5.4186941387179495
5.521729375095994
5.623170219376211
5.723101493099788
5.821658798219488
5.919011279786698
6.015345632022708
6.110852292433515
6.2057144533224
6.30010025849538
6.394158325692816
6.4880164719392255
6.581783195454766
6.6755512158616375
6.769402284121408
6.863412413310888
6.957656875301652
7.052215905299084
7.147198528391529
7.242979899398672
7.342727723319279
7.477112416283035
7.876744155080067
9.336289684353794
12.470722784560696
16.38942555247562
19.71752486186255
22.05183604598612
23.623507281442542
24.733251024578525
25.568479072419777
26.19841622227488
26.61284006938896
26.770949824006742
26.690303564253913
26.599990133570095
4.042279841329267
4.03743459140764
4.018005772841996
3.9766584016134274
3.9120535280143214
3.827230642701435
3.7258531767804257
3.6109788349181557
3.4850371806819878
3.3502331410027613
3.209058642735043
3.0647674342909754
2.9216055143207686
2.784601425467958
2.658846304371239
2.5484869493492983
2.4559147536638117
2.381558967597246
2.3242978689033564
2.2821568276259185
2.252936079714726
2.234602537152121
2.2254580454093524
2.224165367956668
2.2297063217703976
2.241317950395442
2.258428947906659
2.280604715660616
2.307503000937702
2.3388397559679035
2.374364207132813
2.413841891502419
2.457044277792637
2.503743641661266
2.55371183368387
2.6067215528298107
2.662549342131257
2.7209796199063785
2.7818087952978297
2.8448471929628836
2.9099213942664908
2.9768804929516905
3.045601336618427
3.1159875998225735
3.18796474399885
3.2614760910260117
3.33648908630005
3.4130136890337477
3.491098731451338
3.5708144574358407
3.6522542907439766
3.7355349312589303
3.8207713872458857
3.9080552329766824
3.997445036288771
4.088949102484452
4.1825088733455935
4.277986735730636
4.375161094567969
4.473719451583063
4.5732775551461495
4.673433635693294
4.77380413675982
4.8740450368277815
4.973875935371957
5.073094373772635
5.171579382918637
5.269286323578159
5.3662360325731875
5.462501077174287
5.558191150981142
5.653438903808608
5.748387023893768
5.843177152748593
5.937941105725233
6.0327947915721305
6.127835039180239
6.223139215221126
6.318767230273258
6.414765381445611
6.511171321512978
6.608019653997709
6.70535061264629
6.8032589289262635
6.902416769057242
7.009723725075963
7.18702093667409
7.769062040796854
9.452847384720926
12.358262680201944
15.539446179575535
18.182537571932922
20.20679016384481
21.785353306871336
23.06165332748573
24.113478494649417
24.957107278570547
25.567016077574838
25.913559539174525
26.02237796671231
26.026315938374978
4.000327154581708
3.99351749188538
3.969095430267825
3.9209497137194966
3.848281657712335
3.754647843260601
3.6444442140603988
3.5216487901082103
3.3896230380662673
3.2513270589195375
3.1096776917271427
2.96790387399598
2.8297069227427163
2.6991024770321523
2.5799384874092395
2.4752570606586515
2.3867972125319685
2.3148744855390313
2.2586455231397884
2.216569798745871
2.1868539302498458
2.1677609667094924
2.157771185103862
2.155633162388676
2.160351378240013
2.171145087939457
2.187399327391728
2.208618592850168
2.2343876859289162
2.2643412980338327
2.298142528186557
2.3354696547790987
2.3760097318571622
2.419457328978258
2.4655171592246186
2.513908730693525
2.564370306572563
2.616662475123608
2.670572343948499
2.725916854100965
2.782544219289721
2.8403313617083183
2.899176712549938
2.9589989877962086
3.019739005584852
3.08135588337913
3.1438244107040108
3.2071355706425324
3.2713092661392364
3.336429672412794
3.402658160860222
3.470208138702851
3.5393182099444087
3.610241528823663
3.683237610373106
3.758549145729674
3.8363735246038826
3.916832179543583
3.9999374053745798
4.085557566785519
4.173439303208048
4.263256786943175
4.354634837864298
4.447184683943192
4.540545382584409
4.63441527283138
4.7285693079200595
4.8228627770337145
4.9172250145386025
5.01164749321768
5.106169758242454
5.200865227124086
5.295827801188189
5.3911597378786205
5.486961168785577
5.583321742371577
5.680314838055539
5.777994543467468
5.8763953187296405
5.975534099079105
6.0754143311103705
6.1760317724246105
6.277388084316605
6.379599502910185
6.484210511945539
6.608962438023111
6.891767306491779
7.7998714443020445
9.73835738974983
12.252981105768427
14.557872330780947
16.460886236218094
18.134890549864494
19.69018634730361
21.130526990134456
22.419262967339286
23.50390055214207
24.331440978103508
24.87965677429146
25.182225239873812
25.28021553624466
3.9452922682048506
3.936263954826285
3.906283787045158
3.8507076957632087
3.7693338462075276
3.666263737028132
3.5466697974811003
3.415523437212319
3.277213958474463
3.135529071975853
2.9938101750154886
2.8551869671329198
2.722718794173125
2.5993422574162492
2.4876369116256147
2.3895236322261564
2.3060485215282895
2.2373517179941755
2.1828171187572964
2.141323154184559
2.1115026584063683
2.0919510788405886
2.0813610115289305
2.078587991687767
2.082665129059901
2.092786562282547
2.108276441302367
2.128554920551349
2.153107910550009
2.181464018226369
2.213179840392404
2.247833178561892
2.285022357398684
2.3243692917331416
2.3655239954825302
2.408168432136602
2.4520192646983605
2.496830008837537
2.542392776765433
2.588540360564503
2.635146346752369
2.682120227244251
2.7294019595512125
2.7769578055389803
2.8247790602165557
2.8728851902204298
2.921313087973973
2.970083588805932
3.019204011611021
3.0687719370241746
3.1190342314598936
3.170325272600333
3.2230294431208617
3.2775839810626635
3.3344688184410956
3.3941771043130773
3.45717283443375
3.5238381942781203
3.5944000325249803
3.6688883791054048
3.7471559511714343
3.8288930048148444
3.91364945928572
4.000894540010712
4.090087078968431
4.180737385678169
4.272448756457357
4.364934687371734
4.458015772534194
4.551604318916913
4.645684276344709
4.740291302721283
4.835494953357869
4.931383305466385
5.028049850895192
5.125582677927147
5.224056188021301
5.323525550100331
5.4240239748758725
5.525562820724038
5.628134247218358
5.731716778046433
5.836296986258073
5.942112152955205
6.053068326030824
6.215826106242479
6.707480276032824
8.03217793289138
10.101038024155349
12.111670443993965
13.64949111810367
14.923748668426857
16.213092079205612
17.61728840807146
19.09031799971946
20.52170654711375
21.78868448509192
22.796528706032845
23.516102885964155
23.976732141048302
24.14819536431248
3.876785825684062
3.865435111666612
3.829678223376363
3.7664565478062864
3.6762126498217977
3.563647691022684
3.4347634462908996
3.2955480351114788
3.1514056623644637
3.006900807625815
2.865717005561745
2.7307925673726303
2.604486728833299
2.488674674358017
2.384756924956055
2.2936343319195434
2.215703967557266
2.1508959899515205
2.0987432069051803
2.0584709283446294
2.0290991780067764
2.0095473168320837
1.9987260292094506
1.9956028566212245
1.999236064055609
2.008781355163806
2.023481446930618
2.0426488772357896
2.0656497733878143
2.091892943540816
2.120825563214665
2.151934676420719
2.1847521267844803
2.21886015123006
2.253895451104201
2.2895499134615926
2.325568554670873
2.3617468957119625
2.3979282548222107
2.433999257267605
2.4698851979632526
2.5055470244013014
2.540980612107905
2.57621342005684
2.6112924280868675
2.6462791907525918
2.681249187052535
2.7162760149123826
2.7514450220637996
2.786970273394628
2.8232275829110316
2.8606761176568085
2.899846497403828
2.9413445091647867
2.9858372353583813
3.034021921143233
3.086565014380581
3.144021739010553
3.2067676199792747
3.2749554462824397
3.3484798115672714
3.426958079466776
3.5097637877612415
3.5961111345874923
3.685164542866299
3.7761462602157962
3.868416545122093
3.961512214662918
4.055145512010203
4.149176904933594
4.243577795148022
4.3383946557421815
4.433719726707873
4.52966874181871
4.626364224893587
4.723922898996523
4.822446389401643
4.922014815286207
5.022683110357761
5.124480172362089
5.22741072852524
5.331460929404412
5.436633269739386
5.543475575315858
5.66207029675569
5.907534692912986
6.728392143699894
8.438825137432731
10.431252271198192
11.939501787010737
12.939613398569243
13.764150299772215
14.671075955585714
15.76389832153545
17.016801595254627
18.315690219630046
19.510353554237316
20.48320809664739
21.200169618041823
21.67727354755248
21.858154450561326
3.792959151444424
3.779390832750479
3.7381331191287
3.667661881259442
3.5690550182990997
3.4476371913547745
3.3102689002142327
3.1639441523468745
3.0150022528680807
2.8686490833184672
2.728771528010811
2.5980240160840977
2.4780579978903186
2.3697802599388234
2.273578523689675
2.189501776484524
2.1173933559338813
2.0569668200691327
2.0078231398006654
1.9694328053761865
1.941120643867659
1.9220790417494054
1.9114094352209807
1.9081742143293985
1.9114405503939
1.9203076885876726
1.9339195490106136
1.951469369355211
1.97220279979429
1.9954229904159952
2.020497931318804
2.0468686846356685
2.0740561898294616
2.101664582908939
2.129380211989891
2.156965589972447
2.1842498697668447
2.2111202395811818
2.237515615531933
2.2634176156808143
2.288841917955089
2.3138340932300028
2.338463902195307
2.362821041342745
2.3870039591906957
2.411105561487688
2.4352078649650006
2.4594347776607077
2.4840821973539113
2.509608332913629
2.5365196125924827
2.565363302402262
2.596755713356642
2.631382065915683
2.6699740377199053
2.7132796965119446
2.762032072732388
2.8168726746381796
2.8782678833376782
2.9464304028674317
3.0212307916248804
3.102160459735351
3.1883616753037654
3.2787257865779633
3.372043062280948
3.4671688437358976
3.563161554446611
3.6593579393210764
3.7553780105078793
3.851078486299012
3.946484154421785
4.041721670769889
4.136968213004294
4.232416804360411
4.328254705295248
4.424650404857726
4.5217459868828085
4.61965293206897
4.718450355887359
4.818185600968771
4.918877139651795
5.020521333748842
5.123146462149093
5.227934448114187
5.361048548031941
5.770881072339264
7.004285141554905
8.95289801618916
10.694855655109091
11.783807276572539
12.441384482025438
12.963313688137593
13.521072798104028
14.17452694297259
14.895646807362452
15.594145335249024
16.172681076998806
16.60252603391739
16.92536825444643
17.1541115348683
17.240890302406118
3.689889733926167
3.674498461580005
3.62872527861487
3.5523230281353086
3.4468991255948103
3.318316866819075
3.1742291123285207
3.0225621894685073
2.87046177981212
2.723602423914235
2.585928867667918
2.4597569036499936
2.346093278653938
2.245041490856154
2.1561921259736714
2.078937705292051
2.0126821353074136
1.9569326974068555
1.9112855595221976
1.875344832462696
1.8486312557261129
1.8305256440274063
1.8202624184942926
1.8169612150466694
1.8196741836524255
1.8274317407560712
1.8392800602268313
1.854310844110434
1.871685821994447
1.8906570034812609
1.9105816498252821
1.9309310499260675
1.9512924320017198
1.9713641720462007
1.9909459303834065
2.009924400507793
2.0282559343806636
2.045952275299622
2.0630743215123344
2.079721150464386
2.09601447166172
2.1120947761050592
2.12811014966566
2.144180497789062
2.160401046717717
2.1768940064719278
2.1938964391931006
2.2118056902460346
2.2311882647658017
2.252652764344429
2.276733202909573
2.30394147428272
2.3347970620445926
2.3698792415908794
2.409837416011859
2.455349824108954
2.507107585194007
2.565754312774004
2.6317754401386164
2.7053875780086876
2.7864326310608183
2.874307996206726
2.9679641448849994
3.065990428769733
3.166789477209711
3.268806749371654
3.3707500710692155
3.471729592369733
3.571285555443633
3.669321695762127
3.7659913367587015
3.8615827380670047
3.9564308627952824
4.050861786575124
4.145163487076279
4.239573489341016
4.334275798152048
4.429402368886671
4.525036500641928
4.621217558704792
4.717946945759373
4.815197008409314
4.91298678680891
5.013775043216098
5.185084802619388
5.872059832327309
7.51857353833565
9.497347617679447
10.894527762487055
11.647650869217957
12.059917610288123
12.334898949233956
12.536302564711827
12.638651622709093
12.578584937787213
12.338098656286283
12.020733974730208
11.787261363678994
11.713110925339045
11.734588743739755
11.752966881254451
3.5609308866316747
3.5445120789324402
3.4962105879400744
3.41653798338744
3.3073757145666387
3.174841646957437
3.027136240416206
2.8729311467590524
2.720002928009161
2.5743435694936716
2.4398719112894427
2.31859390206908
2.211020425597405
2.1166800313919283
2.0346089565584125
1.9637394864758055
1.9031463860239533
1.8521448517993258
1.8102614272713968
1.777123814596263
1.7523292086279203
1.735343786378428
1.7254603410945375
1.721811642452327
1.7234193607445332
1.729256393185733
1.7383078034412374
1.7496232012411654
1.7623576930515654
1.7757997140590955
1.7893846923544132
1.802696266293074
1.8154574586613421
1.8275145818542553
1.838817983673845
1.8494023542450297
1.8593647869013554
1.8688446428311576
1.8780211153816462
1.8871082276248101
1.8963244387137663
1.905854738451619
1.9158066139846215
1.9263173065247878
1.9377187602956183
1.9504913124186638
1.965224681864652
1.982569424359581
2.0030936302657754
2.027235022968692
2.0553637321470797
2.087821737155969
2.124925867939572
2.1670399321439646
2.2146155498122906
2.268170391785869
2.3282607120657777
2.3954261234713536
2.4701011599235683
2.552499450563606
2.6424856960264367
2.7394656274535616
2.842326794245839
2.9494709325076105
3.058974570333199
3.168869763637648
3.2774675704823273
3.3836037846608997
3.4867243209981056
3.5868114183239763
3.684214978022898
3.779468800266435
3.8731457189148557
3.9657684720584143
4.057767755515237
4.1494703754010525
4.241102859158347
4.332801256854651
4.424621968419903
4.516552089975282
4.608519056344253
4.700401016480291
4.792121657624715
4.889303942388566
5.156351257797159
6.228540345391011
8.185998163578043
9.981014305890808
10.996224907607434
11.447484752305522
11.605755803576336
11.568618872180561
11.319306868465333
10.83103321473097
10.177428400763164
9.544365356256538
9.110174893443276
8.937102185981244
8.9677198686574
9.077482384686787
9.13402987479111
3.3963333254926646
3.380198477425063
3.332678695501684
3.254215873001566
3.1464768116350745
3.0152558985064326
2.868799306804173
2.7161659522169064
2.565546025737402
2.4231788048165788
2.2930084995349187
2.1768879658209572
2.0750713289324283
1.9867868131305872
1.9107671565932944
1.8456666873745777
1.7903258699334281
1.743877722879774
1.7057209496142507
1.675406424820057
1.652494761340992
1.6364383533497826
1.6265211212527058
1.621861713293626
1.6214642150362328
1.6242920563258083
1.6293441706851115
1.635719440932582
1.642662486764073
1.6495879808059046
1.6560839727339083
1.6619005323330929
1.6669297797732312
1.6711808359270814
1.6747539061811647
1.6778199851269169
1.6806006754747793
1.6833381105204932
1.6862836782118893
1.6896779036407037
1.693649029064228
1.6984745486506783
1.7047490755912271
1.7131896903427828
1.7245704950576453
1.7395474771932307
1.7586163894697073
1.7821881059514082
1.810523787282622
1.8437451364590953
1.881942514402784
1.925208769691243
1.9736393745588425
2.0273720031242783
2.0866190078484768
2.151679796389132
2.2229298681455
2.300778382681868
2.3855915949559057
2.477584712135503
2.576694410616602
2.6824488159615156
2.7938442200949862
2.909278292316361
3.0266347777775247
3.1435753974988554
3.2579752580100463
3.3683200465244805
3.473902664398088
3.5747755138315678
3.671527485359329
3.7650092546835614
3.8561065458787436
3.945600030205317
4.034102705750225
4.122047328326719
4.209697876455234
4.297168796893217
4.384443746813298
4.471390849524132
4.557774005827483
4.643260980354054
4.727536315335106
4.826726466466633
5.2896590591566035
6.792639548629825
8.853958810787942
10.280947067449192
10.886604692280583
10.99694511539101
10.797714782581586
10.33752630212218
9.679007847279317
8.983827915160598
8.456192482334107
8.218496810986784
8.245719435109477
8.426696137628724
8.664221586665336
8.879385681607452
8.970885174108528
3.1839548602344836
3.169948997744841
3.127966110818059
3.0572970166676896
2.958609247338204
2.8364258692207116
2.6981984126360943
2.5527867571187994
2.4085474448441317
2.2720159089902534
2.1473952157533374
2.036699906810762
1.9402559046234797
1.8572930657086621
1.786484027943537
1.7263680690734868
1.6756303913542583
1.633228362340563
1.5983851653327024
1.5704952596681185
1.5489962860088229
1.5332578685906362
1.5225211939877972
1.5158994099161762
1.5124269670426032
1.5111343733087075
1.5111252630067462
1.5116382308516263
1.5120850393059067
1.5120637095740008
1.5113482337120094
1.5098647743247982
1.507665138956892
1.5048997971384932
1.5017888190470385
1.49859964846403
1.4956240946732744
1.4930844173713136
1.4911317407144884
1.4903019771049342
1.4915844802082234
1.496077801493699
1.5048184254967596
1.5186653239263945
1.5382023289053808
1.5636014256133504
1.5947599599284343
1.631480625489626
1.673515005746874
1.7206182909680887
1.7726030718277677
1.82935033449351
1.8908079795754127
1.9570065768959706
2.0280768041984394
2.104251909571571
2.1858479137209192
2.273217541347501
2.3666795201957846
2.466432475844177
2.5724678588054943
2.6844771489588206
2.8016967696975996
2.9227135765343633
3.0453982073837307
3.1671343197430764
3.2853395503618286
3.398043990897806
3.5042673995543825
3.6040635601494735
3.698261794677986