# vtk DataFile Version 3.0 
shock_diffraction_time_series_401_.vtk
ASCII
DATASET UNSTRUCTURED_GRID
POINTS         10201 double
0.0 0.0 0.0
0.01 0.0 0.0
0.02 0.0 0.0
0.03 0.0 0.0
0.04 0.0 0.0
0.05 0.0 0.0
0.06 0.0 0.0
0.07 0.0 0.0
0.08 0.0 0.0
0.09 0.0 0.0
0.1 0.0 0.0
0.11 0.0 0.0
0.12 0.0 0.0
0.13 0.0 0.0
0.14 0.0 0.0
0.15 0.0 0.0
0.16 0.0 0.0
0.17 0.0 0.0
0.18 0.0 0.0
0.19 0.0 0.0
0.2 0.0 0.0
0.21 0.0 0.0
0.22 0.0 0.0
0.23 0.0 0.0
0.24 0.0 0.0
0.25 0.0 0.0
0.26 0.0 0.0
0.27 0.0 0.0
0.28 0.0 0.0
0.29 0.0 0.0
0.3 0.0 0.0
0.31 0.0 0.0
0.32 0.0 0.0
0.33 0.0 0.0
0.34 0.0 0.0
0.35000000000000003 0.0 0.0
0.36 0.0 0.0
0.37 0.0 0.0
0.38 0.0 0.0
0.39 0.0 0.0
0.4 0.0 0.0
0.41000000000000003 0.0 0.0
0.42 0.0 0.0
0.43 0.0 0.0
0.44 0.0 0.0
0.45 0.0 0.0
0.46 0.0 0.0
0.47000000000000003 0.0 0.0
0.48 0.0 0.0
0.49 0.0 0.0
0.5 0.0 0.0
0.51 0.0 0.0
0.52 0.0 0.0
0.53 0.0 0.0
0.54 0.0 0.0
0.55 0.0 0.0
0.56 0.0 0.0
0.5700000000000001 0.0 0.0
0.58 0.0 0.0
0.59 0.0 0.0
0.6 0.0 0.0
0.61 0.0 0.0
0.62 0.0 0.0
0.63 0.0 0.0
0.64 0.0 0.0
0.65 0.0 0.0
0.66 0.0 0.0
0.67 0.0 0.0
0.68 0.0 0.0
0.6900000000000001 0.0 0.0
0.7000000000000001 0.0 0.0
0.71 0.0 0.0
0.72 0.0 0.0
0.73 0.0 0.0
0.74 0.0 0.0
0.75 0.0 0.0
0.76 0.0 0.0
0.77 0.0 0.0
0.78 0.0 0.0
0.79 0.0 0.0
0.8 0.0 0.0
0.81 0.0 0.0
0.8200000000000001 0.0 0.0
0.8300000000000001 0.0 0.0
0.84 0.0 0.0
0.85 0.0 0.0
0.86 0.0 0.0
0.87 0.0 0.0
0.88 0.0 0.0
0.89 0.0 0.0
0.9 0.0 0.0
0.91 0.0 0.0
0.92 0.0 0.0
0.93 0.0 0.0
0.9400000000000001 0.0 0.0
0.9500000000000001 0.0 0.0
0.96 0.0 0.0
0.97 0.0 0.0
0.98 0.0 0.0
0.99 0.0 0.0
1.0 0.0 0.0
0.0 0.01 0.0
0.01 0.01 0.0
0.02 0.01 0.0
0.03 0.01 0.0
0.04 0.01 0.0
0.05 0.01 0.0
0.06 0.01 0.0
0.07 0.01 0.0
0.08 0.01 0.0
0.09 0.01 0.0
0.1 0.01 0.0
0.11 0.01 0.0
0.12 0.01 0.0
0.13 0.01 0.0
0.14 0.01 0.0
0.15 0.01 0.0
0.16 0.01 0.0
0.17 0.01 0.0
0.18 0.01 0.0
0.19 0.01 0.0
0.2 0.01 0.0
0.21 0.01 0.0
0.22 0.01 0.0
0.23 0.01 0.0
0.24 0.01 0.0
0.25 0.01 0.0
0.26 0.01 0.0
0.27 0.01 0.0
0.28 0.01 0.0
0.29 0.01 0.0
0.3 0.01 0.0
0.31 0.01 0.0
0.32 0.01 0.0
0.33 0.01 0.0
0.34 0.01 0.0
0.35000000000000003 0.01 0.0
0.36 0.01 0.0
0.37 0.01 0.0
0.38 0.01 0.0
0.39 0.01 0.0
0.4 0.01 0.0
0.41000000000000003 0.01 0.0
0.42 0.01 0.0
0.43 0.01 0.0
0.44 0.01 0.0
0.45 0.01 0.0
0.46 0.01 0.0
0.47000000000000003 0.01 0.0
0.48 0.01 0.0
0.49 0.01 0.0
0.5 0.01 0.0
0.51 0.01 0.0
0.52 0.01 0.0
0.53 0.01 0.0
0.54 0.01 0.0
0.55 0.01 0.0
0.56 0.01 0.0
0.5700000000000001 0.01 0.0
0.58 0.01 0.0
0.59 0.01 0.0
0.6 0.01 0.0
0.61 0.01 0.0
0.62 0.01 0.0
0.63 0.01 0.0
0.64 0.01 0.0
0.65 0.01 0.0
0.66 0.01 0.0
0.67 0.01 0.0
0.68 0.01 0.0
0.6900000000000001 0.01 0.0
0.7000000000000001 0.01 0.0
0.71 0.01 0.0
0.72 0.01 0.0
0.73 0.01 0.0
0.74 0.01 0.0
0.75 0.01 0.0
0.76 0.01 0.0
0.77 0.01 0.0
0.78 0.01 0.0
0.79 0.01 0.0
0.8 0.01 0.0
0.81 0.01 0.0
0.8200000000000001 0.01 0.0
0.8300000000000001 0.01 0.0
0.84 0.01 0.0
0.85 0.01 0.0
0.86 0.01 0.0
0.87 0.01 0.0
0.88 0.01 0.0
0.89 0.01 0.0
0.9 0.01 0.0
0.91 0.01 0.0
0.92 0.01 0.0
0.93 0.01 0.0
0.9400000000000001 0.01 0.0
0.9500000000000001 0.01 0.0
0.96 0.01 0.0
0.97 0.01 0.0
0.98 0.01 0.0
0.99 0.01 0.0
1.0 0.01 0.0
0.0 0.02 0.0
0.01 0.02 0.0
0.02 0.02 0.0
0.03 0.02 0.0
0.04 0.02 0.0
0.05 0.02 0.0
0.06 0.02 0.0
0.07 0.02 0.0
0.08 0.02 0.0
0.09 0.02 0.0
0.1 0.02 0.0
0.11 0.02 0.0
0.12 0.02 0.0
0.13 0.02 0.0
0.14 0.02 0.0
0.15 0.02 0.0
0.16 0.02 0.0
0.17 0.02 0.0
0.18 0.02 0.0
0.19 0.02 0.0
0.2 0.02 0.0
0.21 0.02 0.0
0.22 0.02 0.0
0.23 0.02 0.0
0.24 0.02 0.0
0.25 0.02 0.0
0.26 0.02 0.0
0.27 0.02 0.0
0.28 0.02 0.0
0.29 0.02 0.0
0.3 0.02 0.0
0.31 0.02 0.0
0.32 0.02 0.0
0.33 0.02 0.0
0.34 0.02 0.0
0.35000000000000003 0.02 0.0
0.36 0.02 0.0
0.37 0.02 0.0
0.38 0.02 0.0
0.39 0.02 0.0
0.4 0.02 0.0
0.41000000000000003 0.02 0.0
0.42 0.02 0.0
0.43 0.02 0.0
0.44 0.02 0.0
0.45 0.02 0.0
0.46 0.02 0.0
0.47000000000000003 0.02 0.0
0.48 0.02 0.0
0.49 0.02 0.0
0.5 0.02 0.0
0.51 0.02 0.0
0.52 0.02 0.0
0.53 0.02 0.0
0.54 0.02 0.0
0.55 0.02 0.0
0.56 0.02 0.0
0.5700000000000001 0.02 0.0
0.58 0.02 0.0
0.59 0.02 0.0
0.6 0.02 0.0
0.61 0.02 0.0
0.62 0.02 0.0
0.63 0.02 0.0
0.64 0.02 0.0
0.65 0.02 0.0
0.66 0.02 0.0
0.67 0.02 0.0
0.68 0.02 0.0
0.6900000000000001 0.02 0.0
0.7000000000000001 0.02 0.0
0.71 0.02 0.0
0.72 0.02 0.0
0.73 0.02 0.0
0.74 0.02 0.0
0.75 0.02 0.0
0.76 0.02 0.0
0.77 0.02 0.0
0.78 0.02 0.0
0.79 0.02 0.0
0.8 0.02 0.0
0.81 0.02 0.0
0.8200000000000001 0.02 0.0
0.8300000000000001 0.02 0.0
0.84 0.02 0.0
0.85 0.02 0.0
0.86 0.02 0.0
0.87 0.02 0.0
0.88 0.02 0.0
0.89 0.02 0.0
0.9 0.02 0.0
0.91 0.02 0.0
0.92 0.02 0.0
0.93 0.02 0.0
0.9400000000000001 0.02 0.0
0.9500000000000001 0.02 0.0
0.96 0.02 0.0
0.97 0.02 0.0
0.98 0.02 0.0
0.99 0.02 0.0
1.0 0.02 0.0
0.0 0.03 0.0
0.01 0.03 0.0
0.02 0.03 0.0
0.03 0.03 0.0
0.04 0.03 0.0
0.05 0.03 0.0
0.06 0.03 0.0
0.07 0.03 0.0
0.08 0.03 0.0
0.09 0.03 0.0
0.1 0.03 0.0
0.11 0.03 0.0
0.12 0.03 0.0
0.13 0.03 0.0
0.14 0.03 0.0
0.15 0.03 0.0
0.16 0.03 0.0
0.17 0.03 0.0
0.18 0.03 0.0
0.19 0.03 0.0
0.2 0.03 0.0
0.21 0.03 0.0
0.22 0.03 0.0
0.23 0.03 0.0
0.24 0.03 0.0
0.25 0.03 0.0
0.26 0.03 0.0
0.27 0.03 0.0
0.28 0.03 0.0
0.29 0.03 0.0
0.3 0.03 0.0
0.31 0.03 0.0
0.32 0.03 0.0
0.33 0.03 0.0
0.34 0.03 0.0
0.35000000000000003 0.03 0.0
0.36 0.03 0.0
0.37 0.03 0.0
0.38 0.03 0.0
0.39 0.03 0.0
0.4 0.03 0.0
0.41000000000000003 0.03 0.0
0.42 0.03 0.0
0.43 0.03 0.0
0.44 0.03 0.0
0.45 0.03 0.0
0.46 0.03 0.0
0.47000000000000003 0.03 0.0
0.48 0.03 0.0
0.49 0.03 0.0
0.5 0.03 0.0
0.51 0.03 0.0
0.52 0.03 0.0
0.53 0.03 0.0
0.54 0.03 0.0
0.55 0.03 0.0
0.56 0.03 0.0
0.5700000000000001 0.03 0.0
0.58 0.03 0.0
0.59 0.03 0.0
0.6 0.03 0.0
0.61 0.03 0.0
0.62 0.03 0.0
0.63 0.03 0.0
0.64 0.03 0.0
0.65 0.03 0.0
0.66 0.03 0.0
0.67 0.03 0.0
0.68 0.03 0.0
0.6900000000000001 0.03 0.0
0.7000000000000001 0.03 0.0
0.71 0.03 0.0
0.72 0.03 0.0
0.73 0.03 0.0
0.74 0.03 0.0
0.75 0.03 0.0
0.76 0.03 0.0
0.77 0.03 0.0
0.78 0.03 0.0
0.79 0.03 0.0
0.8 0.03 0.0
0.81 0.03 0.0
0.8200000000000001 0.03 0.0
0.8300000000000001 0.03 0.0
0.84 0.03 0.0
0.85 0.03 0.0
0.86 0.03 0.0
0.87 0.03 0.0
0.88 0.03 0.0
0.89 0.03 0.0
0.9 0.03 0.0
0.91 0.03 0.0
0.92 0.03 0.0
0.93 0.03 0.0
0.9400000000000001 0.03 0.0
0.9500000000000001 0.03 0.0
0.96 0.03 0.0
0.97 0.03 0.0
0.98 0.03 0.0
0.99 0.03 0.0
1.0 0.03 0.0
0.0 0.04 0.0
0.01 0.04 0.0
0.02 0.04 0.0
0.03 0.04 0.0
0.04 0.04 0.0
0.05 0.04 0.0
0.06 0.04 0.0
0.07 0.04 0.0
0.08 0.04 0.0
0.09 0.04 0.0
0.1 0.04 0.0
0.11 0.04 0.0
0.12 0.04 0.0
0.13 0.04 0.0
0.14 0.04 0.0
0.15 0.04 0.0
0.16 0.04 0.0
0.17 0.04 0.0
0.18 0.04 0.0
0.19 0.04 0.0
0.2 0.04 0.0
0.21 0.04 0.0
0.22 0.04 0.0
0.23 0.04 0.0
0.24 0.04 0.0
0.25 0.04 0.0
0.26 0.04 0.0
0.27 0.04 0.0
0.28 0.04 0.0
0.29 0.04 0.0
0.3 0.04 0.0
0.31 0.04 0.0
0.32 0.04 0.0
0.33 0.04 0.0
0.34 0.04 0.0
0.35000000000000003 0.04 0.0
0.36 0.04 0.0
0.37 0.04 0.0
0.38 0.04 0.0
0.39 0.04 0.0
0.4 0.04 0.0
0.41000000000000003 0.04 0.0
0.42 0.04 0.0
0.43 0.04 0.0
0.44 0.04 0.0
0.45 0.04 0.0
0.46 0.04 0.0
0.47000000000000003 0.04 0.0
0.48 0.04 0.0
0.49 0.04 0.0
0.5 0.04 0.0
0.51 0.04 0.0
0.52 0.04 0.0
0.53 0.04 0.0
0.54 0.04 0.0
0.55 0.04 0.0
0.56 0.04 0.0
0.5700000000000001 0.04 0.0
0.58 0.04 0.0
0.59 0.04 0.0
0.6 0.04 0.0
0.61 0.04 0.0
0.62 0.04 0.0
0.63 0.04 0.0
0.64 0.04 0.0
0.65 0.04 0.0
0.66 0.04 0.0
0.67 0.04 0.0
0.68 0.04 0.0
0.6900000000000001 0.04 0.0
0.7000000000000001 0.04 0.0
0.71 0.04 0.0
0.72 0.04 0.0
0.73 0.04 0.0
0.74 0.04 0.0
0.75 0.04 0.0
0.76 0.04 0.0
0.77 0.04 0.0
0.78 0.04 0.0
0.79 0.04 0.0
0.8 0.04 0.0
0.81 0.04 0.0
0.8200000000000001 0.04 0.0
0.8300000000000001 0.04 0.0
0.84 0.04 0.0
0.85 0.04 0.0
0.86 0.04 0.0
0.87 0.04 0.0
0.88 0.04 0.0
0.89 0.04 0.0
0.9 0.04 0.0
0.91 0.04 0.0
0.92 0.04 0.0
0.93 0.04 0.0
0.9400000000000001 0.04 0.0
0.9500000000000001 0.04 0.0
0.96 0.04 0.0
0.97 0.04 0.0
0.98 0.04 0.0
0.99 0.04 0.0
1.0 0.04 0.0
0.0 0.05 0.0
0.01 0.05 0.0
0.02 0.05 0.0
0.03 0.05 0.0
0.04 0.05 0.0
0.05 0.05 0.0
0.06 0.05 0.0
0.07 0.05 0.0
0.08 0.05 0.0
0.09 0.05 0.0
0.1 0.05 0.0
0.11 0.05 0.0
0.12 0.05 0.0
0.13 0.05 0.0
0.14 0.05 0.0
0.15 0.05 0.0
0.16 0.05 0.0
0.17 0.05 0.0
0.18 0.05 0.0
0.19 0.05 0.0
0.2 0.05 0.0
0.21 0.05 0.0
0.22 0.05 0.0
0.23 0.05 0.0
0.24 0.05 0.0
0.25 0.05 0.0
0.26 0.05 0.0
0.27 0.05 0.0
0.28 0.05 0.0
0.29 0.05 0.0
0.3 0.05 0.0
0.31 0.05 0.0
0.32 0.05 0.0
0.33 0.05 0.0
0.34 0.05 0.0
0.35000000000000003 0.05 0.0
0.36 0.05 0.0
0.37 0.05 0.0
0.38 0.05 0.0
0.39 0.05 0.0
0.4 0.05 0.0
0.41000000000000003 0.05 0.0
0.42 0.05 0.0
0.43 0.05 0.0
0.44 0.05 0.0
0.45 0.05 0.0
0.46 0.05 0.0
0.47000000000000003 0.05 0.0
0.48 0.05 0.0
0.49 0.05 0.0
0.5 0.05 0.0
0.51 0.05 0.0
0.52 0.05 0.0
0.53 0.05 0.0
0.54 0.05 0.0
0.55 0.05 0.0
0.56 0.05 0.0
0.5700000000000001 0.05 0.0
0.58 0.05 0.0
0.59 0.05 0.0
0.6 0.05 0.0
0.61 0.05 0.0
0.62 0.05 0.0
0.63 0.05 0.0
0.64 0.05 0.0
0.65 0.05 0.0
0.66 0.05 0.0
0.67 0.05 0.0
0.68 0.05 0.0
0.6900000000000001 0.05 0.0
0.7000000000000001 0.05 0.0
0.71 0.05 0.0
0.72 0.05 0.0
0.73 0.05 0.0
0.74 0.05 0.0
0.75 0.05 0.0
0.76 0.05 0.0
0.77 0.05 0.0
0.78 0.05 0.0
0.79 0.05 0.0
0.8 0.05 0.0
0.81 0.05 0.0
0.8200000000000001 0.05 0.0
0.8300000000000001 0.05 0.0
0.84 0.05 0.0
0.85 0.05 0.0
0.86 0.05 0.0
0.87 0.05 0.0
0.88 0.05 0.0
0.89 0.05 0.0
0.9 0.05 0.0
0.91 0.05 0.0
0.92 0.05 0.0
0.93 0.05 0.0
0.9400000000000001 0.05 0.0
0.9500000000000001 0.05 0.0
0.96 0.05 0.0
0.97 0.05 0.0
0.98 0.05 0.0
0.99 0.05 0.0
1.0 0.05 0.0
0.0 0.06 0.0
0.01 0.06 0.0
0.02 0.06 0.0
0.03 0.06 0.0
0.04 0.06 0.0
0.05 0.06 0.0
0.06 0.06 0.0
0.07 0.06 0.0
0.08 0.06 0.0
0.09 0.06 0.0
0.1 0.06 0.0
0.11 0.06 0.0
0.12 0.06 0.0
0.13 0.06 0.0
0.14 0.06 0.0
0.15 0.06 0.0
0.16 0.06 0.0
0.17 0.06 0.0
0.18 0.06 0.0
0.19 0.06 0.0
0.2 0.06 0.0
0.21 0.06 0.0
0.22 0.06 0.0
0.23 0.06 0.0
0.24 0.06 0.0
0.25 0.06 0.0
0.26 0.06 0.0
0.27 0.06 0.0
0.28 0.06 0.0
0.29 0.06 0.0
0.3 0.06 0.0
0.31 0.06 0.0
0.32 0.06 0.0
0.33 0.06 0.0
0.34 0.06 0.0
0.35000000000000003 0.06 0.0
0.36 0.06 0.0
0.37 0.06 0.0
0.38 0.06 0.0
0.39 0.06 0.0
0.4 0.06 0.0
0.41000000000000003 0.06 0.0
0.42 0.06 0.0
0.43 0.06 0.0
0.44 0.06 0.0
0.45 0.06 0.0
0.46 0.06 0.0
[...]
POINT_DATA  10201
FIELD  FlowField  5
Density    1 10201  double
7.744761270936866
7.787693653754824
7.791924198478622
7.689728333596587
7.556407657392276
7.418451189197164
7.287022988645486
7.166370852672607
7.057921540051624
6.961978701606421
6.878413945999188
6.806994673271232
6.747544071543492
6.699995609993923
6.664389949947365
6.640855055842676
6.629546979815517
6.630632316169253
6.644302990844526
6.670567498494717
6.709144822559576
6.759550884995301
6.821094193648963
6.892870221883262
6.97375159145569
7.062359174031149
7.1571185932802965
7.256383537036077
7.358411398650414
7.461270171048232
7.56279505930128
7.660529335835001
7.7516523016917604
7.832898739891498
7.900492067165357
7.950120892451606
7.976980112414583
7.975890604125499
7.9414591701195985
7.868221362000845
7.750725669844683
7.583564667540562
7.361404081376248
7.07929142936908
6.733442787530221
6.322265759567103
5.847191066019979
5.312983738168414
4.727601614532981
4.102243326882967
3.452816493378254
2.804132480149783
2.1959185855545567
1.6829995582433592
1.3170175705188722
1.1123155490617578
1.0293418699902968
1.0059632522978514
1.0010603845606716
1.0001758714021671
1.0000276825093772
1.0000041595863012
1.0000005990483096
1.0000000829958229
1.0000000111019136
1.0000000014387083
1.0000000001812
1.0000000000222438
1.000000000002668
1.0000000000003135
1.000000000000036
1.000000000000004
1.0000000000000004
1.0
1.0
1.0
1.0
1.0
1.0
1.0
1.0
1.0
1.0
1.0
1.0
1.0
1.0
1.0
1.0
1.0
1.0
1.0
1.0
1.0
1.0
1.0
1.0
1.0
1.0
1.0
1.0
6.860546618149058
6.881631280963595
6.869148461352688
6.7867131813406685
6.6852755454572605
6.580835362064562
6.479500340343378
6.3837501958450185
6.294774237638663
6.21324043785151
6.1395877420243306
6.074184734646874
6.017412289775338
5.969683498079799
5.931429500865201
5.90308109793286
5.885030202522129
5.8776059629162365
5.881111654403474
5.895705377954393
5.921300119185701
5.9576206396279545
6.0042041105680415
6.060380707270663
6.125243711543963
6.197601749653117
6.275974883828478
6.358679094677891
6.443834031286376
6.529276491928412
6.612504001653263
6.690616897772545
6.760251646583598
6.81751324089414
6.857937881423792
6.876532958472174
6.867965284625254
6.8269981832445
6.749161596231088
6.631515233423913
6.47334713538589
6.2772945138318805
6.049295944972341
5.7958602756267865
5.521495154244908
5.227930720206903
4.914456823535274
4.5783287118090215
4.214864909787237
3.8182785273578337
3.3842174260083855
2.9149450732437314
2.4269287205315
1.9565092389757632
1.554610950055731
1.2651290357063758
1.0987434196962567
1.0271952224493026
1.0055830930985938
1.000958090665275
1.0001514603279749
1.0000227131712605
1.0000032576154565
1.0000004488776826
1.0000000596568586
1.0000000076750748
1.0000000009590926
1.000000000116767
1.0000000000138878
1.0000000000016174
1.0000000000001847
1.0000000000000207
1.0000000000000022
1.0000000000000002
1.0
1.0
1.0
1.0
1.0
1.0
1.0
1.0
1.0
1.0
1.0
1.0
1.0
1.0
1.0
1.0
1.0
1.0
1.0
1.0
1.0
1.0
1.0
1.0
1.0
1.0
1.0
5.063097286261753
5.0040196811191615
4.897397109526159
4.809835506374542
4.735325004919042
4.671495777254733
4.6172736891531825
4.5708652687503015
4.530050723924985
4.492736952419475
4.4573784834797765
4.423205800823893
4.390189146812296
4.358845722774985
4.330007547351942
4.304624544532849
4.283619174059217
4.267784494821608
4.257776681217257
4.254106198660869
4.257101091678344
4.266890936704488
4.283386143493728
4.306249856869121
4.334839171680306
4.368128170774772
4.404624698568517
4.4423766741472415
4.479052710773817
4.5120144301989225
4.538443834224094
4.555546235111451
4.560811327726527
4.552354759339696
4.529427989249868
4.493023941776162
4.445416576994597
4.388968369809754
4.325601359791408
4.257066727157159
4.185450258182606
4.113281713915585
4.043362932066369
3.9783530119143102
3.9199926455698777
3.868004818588759
3.8189395570704727
3.7653013760399134
3.695229528416869
3.592942795383616
3.4402411466886234
3.219599793654355
2.9197019735432703
2.5440647803022394
2.1208762797811964
1.7059430020665642
1.3670805596204252
1.1485942617047737
1.0440762980246951
1.0093563174145828
1.0015664371981132
1.0002365355496066
1.0000338248915188
1.0000046352195404
1.0000006118384892
1.000000078107539
1.000000009678662
1.0000000011679437
1.000000000137647
1.000000000015883
1.000000000001798
1.0000000000001998
1.0000000000000218
1.0000000000000022
1.0000000000000002
1.0
1.0
1.0
1.0
1.0
1.0
1.0
1.0
1.0
1.0
1.0
1.0
1.0
1.0
1.0
1.0
1.0
1.0
1.0
1.0
1.0
1.0
1.0
1.0
1.0
1.0
3.875001580450596
3.783023951950574
3.6107419034654784
3.458379553445268
3.320870496237406
3.198111290397344
3.0927252665748277
3.0057453255006887
2.9361880895675183
2.8817186697745214
2.839369075619505
2.806086427623575
2.779146713576283
2.756411486166133
2.7363942975498228
2.7182101560138583
2.7014504573697993
2.686027480618135
2.672043362015453
2.6597020568828476
2.649240529973831
2.640845241406141
2.634611095924154
2.6305362498882614
2.6284919862213445
2.628211630251352
2.629304643085624
2.6313047532556744
2.6338008147430756
2.636631854471675
2.6400702687023343
2.6448339063979653
2.6520121326936086
2.6630799264921587
2.6799354103605126
2.704894758707357
2.7405767557953578
2.789594289916842
2.854027223100519
2.9347714874317448
3.0309006956364626
3.1385289360564697
3.250720287503264
3.3599802073217875
3.4604503406584626
3.5480747248020568
3.6194580106590912
3.6706176474783145
3.696291594388158
3.6892776023749367
3.6397378357689205
3.5347806830098243
3.3591375951327054
3.098600535838063
2.7481757523683483
2.3249258230298415
1.878761270120786
1.4852705002554119
1.2100200745856287
1.0666104812328954
1.0147599759536226
1.0024369793906818
1.0003523785113013
1.0000481011799853
1.0000063053190469
1.0000007984110888
1.000000098061447
1.0000000117233896
1.000000001368457
1.0000000001563845
1.0000000000175362
1.000000000001933
1.0000000000002094
1.0000000000000222
1.0000000000000022
1.0000000000000002
1.0
1.0
1.0
1.0
1.0
1.0
1.0
1.0
1.0
1.0
1.0
1.0
1.0
1.0
1.0
1.0
1.0
1.0
1.0
1.0
1.0
1.0
1.0
1.0
1.0
3.546167699253055
3.4784677705031752
3.3098858141122705
3.104077226352994
2.8959412700032297
2.695257913788644
2.509013893577931
2.341888775325907
2.196146616340425
2.072052249937232
1.9684339575081886
1.8831658972488925
1.8136211297164124
1.7570568216200275
1.7108995768539779
1.6729227188266216
1.6413205503925181
1.6147138331750768
1.5921212240277973
1.5729099028699798
1.5567397939788106
1.5435166607516266
1.5333734717458034
1.5266682776446343
1.5239686287118013
1.526051530366885
1.533904037957929
1.5486903868903568
1.5717136339178772
1.604372667011588
1.6481355864118
1.7044966072060832
1.7748509982744167
1.8601790429926255
1.960477079076762
2.0741122830056318
2.198262098348933
2.33012993599592
2.467517847062679
2.608597357998074
2.7514366524206313
2.893884262889763
3.033622555116879
3.1682284908904736
3.295217161161191
3.412044749595889
3.516042640063401
3.6042493059542915
3.673102373333564
3.7179538403228087
3.7323878436010904
3.7073820238227095
3.6305288041062718
3.4859545818474507
3.256445172272101
2.930177891129594
2.513715186921685
2.047635307557832
1.6086410735226568
1.2789769558209687
1.0939026867106292
1.0217796587875763
1.0035815237105636
1.0004974420616035
1.0000649027765987
1.000008149471282
1.0000009914760783
1.0000001173540431
1.0000000135589606
1.0000000015335664
1.0000000001702072
1.0000000000185754
1.0000000000019964
1.0000000000002114
1.0000000000000218
1.000000000000002
1.0
1.0
1.0
1.0
1.0
1.0
1.0
1.0
1.0
1.0
1.0
1.0
1.0
1.0
1.0
1.0
1.0
1.0
1.0
1.0
1.0
1.0
1.0
1.0
1.0
3.4489911030804556
3.3718919733801433
3.1788615081109546
2.9448679962892017
2.712699992274513
2.491722880841867
2.286989564073904
2.1009448976035454
1.9341745003492457
1.7861463035539424
1.6558474292012086
1.542138131495894
1.4438456618365452
1.3597423269638156
1.288548760036238
1.228964885062177
1.1797230103982412
1.1396565793209417
1.1077658440459905
1.083266861756981
1.065620012920079
1.0545403119609285
1.0499963171602709
1.0521981065491515
1.0615727873357448
1.0787281698753792
1.1043882745515956
1.1392902856732359
1.1840425467149527
1.2389570882840206
1.3039767933193944
1.378832125033729
1.4633046073586353
1.5573832756035118
1.6611831925508256
1.7747357109920412
1.8978372781851096
2.029954437504034
2.17017336871346
2.317183267832452
2.4692853049948633
2.624424843460988
2.780251596077237
2.93420310140914
3.083595586546107
3.2257041203497385
3.357807484447084
3.4771668571816434
3.580901793335114
3.6657218525999173
3.727468248601447
3.760424887062774
3.7563993328601035
3.70370097502766
3.586493337017781
3.385828757801838
3.0848885446684577
2.6812330009219734
2.2052074318931405
1.7304806922016498
1.351369126302589
1.1244139624143497
1.0301077726581243
1.0049643391843235
1.0006645003817474
1.000083004836886
1.0000100003025647
1.0000011710746914
1.0000001338286124
1.0000000149706885
1.0000000016435122
1.000000000177449
1.0000000000188765
1.000000000001981
1.0000000000002052
1.0000000000000209
1.0000000000000018
1.0
1.0
1.0
1.0
1.0
1.0
1.0
1.0
1.0
1.0
1.0
1.0
1.0
1.0
1.0
1.0
1.0
1.0
1.0
1.0
1.0
1.0
1.0
1.0
3.361661965244728
3.266663096752197
3.0389359033855516
2.7751263635461
2.520608392894135
2.284125660508986
2.069486196170852
1.8778234097101316
1.7085895647482192
1.5602514129860536
1.4309169132187507
1.318680635593475
1.2217849313336036
1.1386733729639542
1.0679898491532724
1.0085565830756842
0.9593492354486511
0.9194781793677067
0.8881784244681495
0.8648069302147798
0.8488439244288568
0.8398945949570523
0.8376890390492611
0.8420800372885187
0.853040816169788
0.8706664071575836
0.8951811911691798
0.9269431425850554
0.9664195241504496
1.0141162614803951
1.070483779387069
1.1358565294430505
1.2104667974448238
1.294573761727059
1.388600609956613
1.4930539382975123
1.6082949015216503
1.734373776634253
1.8709451298180266
2.0172182384353867
2.171931927309796
2.333353446386308
2.4993088097754836
2.667247962818457
2.8343415735028197
2.9976007463045296
3.153996889077761
3.3005504990499572
3.4343560273374596
3.552503855931578
3.6518541671062525
3.7286106004195907
3.7776418618862833
3.7915195441253546
3.7593342666124134
3.6656389456695924
3.4906183759977703
3.213942049061118
2.8258456042940487
2.3468200246046154
1.8450721077913184
1.4228261686658377
1.1560290870565706
1.0391260032317795
1.0064843028808002
1.0008389984837296
1.0001005304750703
1.0000116441915177
1.0000013151718206
1.0000001454002996
1.0000000157780453
1.0000000016842931
1.0000000001772003
1.000000000018402
1.0000000000018887
1.0000000000001914
1.0000000000000187
1.0000000000000013
1.0
1.0
1.0
1.0
1.0
1.0
1.0
1.0
1.0
1.0
1.0
1.0
1.0
1.0
1.0
1.0
1.0
1.0
1.0
1.0
1.0
1.0
1.0
3.2726077213072577
3.157247723931521
2.8914887979846844
2.5973956740799444
2.3222291411950593
2.073297734169934
1.8524876214205819
1.659210714366286
1.4915697339144272
1.346994550674073
1.2228294872218974
1.1166104624588469
1.0261643232221587
0.9496195462416277
0.885379444677107
0.8320841521244338
0.7885735207246656
0.7538557698267506
0.7270833509857875
0.7075359933265367
0.6946099931718678
0.6878124709612665
0.6867594519070904
0.6911771720604831
0.7009068754499331
0.7159139360132397
0.7363020838632593
0.7623328172306941
0.7944468327772027
0.8332493344482725
0.8794259191469505
0.9336207932301062
0.9963829615860507
1.0681913402986014
1.1495703392297152
1.2412418400066245
1.3440533319240173
1.4586965492929609
1.5854961299823596
1.724326091286914
1.8745573270416145
2.035018026815403
2.203975210126946
2.3791545175173585
2.5578091716508458
2.736834092061858
2.9129104832459776
3.0826606555743616
3.242783182566865
3.390126990509619
3.521660593878126
3.6342885430559058
3.724459966383507
3.7875073161397608
3.8166623802294715
3.8017622438904546
3.727893838404055
3.5748957915393893
3.3200230860613686
2.9477451487559305
2.4697938081889723
1.9479570111487523
1.4892267172170826
1.1863674886199298
1.047997773007515
1.0079809408673857
1.0010003251992419
1.000115223526755
1.0000128597213258
1.000001404019576
1.0000001504856786
1.0000000158721591
1.0000000016505308
1.0000000001694886
1.000000000017209
1.0000000000017293
1.0000000000001714
1.000000000000016
1.0000000000000013
1.0
1.0
1.0
1.0
1.0
1.0
1.0
1.0
1.0
1.0
1.0
1.0
1.0
1.0
1.0
1.0
1.0
1.0
1.0
1.0
1.0
1.0
3.181785901697655
3.0440750028625825
2.7379812140129114
2.4143564968375117
2.1214933312341526
1.864120868317674
1.6413966171524057
1.4506536989588932
1.2884471690463712
1.1510919311676022
1.0351564392004706
0.9376391316937467
0.8559885070368594
0.7880595729304801
0.7320525269904699
0.6864535031945023
0.6499842541036356
0.6215618881208091
0.6002677304557844
0.5853239962719089
0.576077059568373
0.57198618621609
0.5726166766842755
0.5776367887011657
0.586818656786011
0.6000441931429482
0.6173170759750399
0.6387812601856102
0.6647455001364921
0.6957127719921214
0.7323831541072721
0.7755649442580455
0.826044865130021
0.88457342947844
0.9518859200023481
1.028776630208337
1.1162767266856661
1.215580758388684
1.3277011645473196
1.4532446214077073
1.5923435270095665
1.744582669669008
1.9089253882842274
2.083673207067975
2.2664778574432978
2.454410403337068
2.6440872917580656
2.831843050160798
3.013922834139718
3.1866598454503103
3.346597783648333
3.4905093594586614
3.6152561522552027
3.71743110421077
3.7927166419649585
3.8348883795837074
3.8344412215310495
3.7770106318817867
3.642358556534597
3.4060691198248367
3.048141373359808
2.5729320032959206
2.035957320092875
1.5470460255939733
1.2130982141997981
1.055806854986756
1.0092614139678737
1.0011255264704344
1.0001249160806598
1.0000134667578413
1.0000014246364783
1.0000001483611305
1.000000015240043
1.0000000015466424
1.0000000001552736
1.0000000000154379
1.0000000000015208
1.0000000000001479
1.000000000000014
1.000000000000001
1.0
1.0
1.0
1.0
1.0
1.0
1.0
1.0
1.0
1.0
1.0
1.0
1.0
1.0
1.0
1.0
1.0
1.0
1.0
1.0
1.0
3.088469141981781
2.9268626274505363
2.579292692041303
2.2283430012495837
1.9219963002835523
1.6609575689605036
1.440855523925852
1.256708258577459
1.1034253173806636
0.976217244088999
0.870925371963799
0.7840661185692415
0.7127617276277133
0.6546416200781313
0.6077488981866452
0.5704627171974868
0.5414368736477271
0.5195513331506756
0.5038732967670356
0.4936257413072014
0.4881625449222311
0.4869495871304689
0.4895509989076046
0.49561994847672675
0.5048942659721262
0.5171981675674102
0.5324514369421643
0.55068649452762
0.572072592927244
0.5969459807458979
0.6258455015465014
0.6595250185091754
0.698852400968172
0.744709385789998
0.7980331611809734
0.8597979928940926
0.9310586765949036
1.0131630002670402
1.1076342656428333
1.2157800761545194
1.338502985036769
1.4762309129319329
1.6288057282688415
1.7953735524777967
1.9743148055230018
2.1632383157190116
2.359050687215512
2.5580975735367373
2.7563611544017683
2.949689876284688
3.134022485737377
3.305557976185081
3.460819887969582
3.596558376526758
3.709429283867116
3.7953658650656115
3.848568449306197
3.860075056481233
3.816006196854486
3.6961464343298114
3.4748608205089244
3.1286790161320837
2.6560084152353585
2.1069967686210997
1.5935151536154903
1.234193287499751
1.0617050888443116
1.0101414105922228
1.0011946816177861
1.0001280609826941
1.0000133709705952
1.0000013739614289
1.0000001393334736
1.0000000139675662
1.0000000013858872
1.0000000001362501
1.0000000000132836
1.000000000001285
1.000000000000123
1.0000000000000113
1.0000000000000007
1.0
1.0
1.0
1.0
1.0
1.0
1.0
1.0
1.0
1.0
1.0
1.0
1.0
1.0
1.0
1.0
1.0
1.0
1.0
1.0
2.9913226312603776
2.8049248469377397
2.4162457930498764
2.0417771174967267
1.7272280424829598
1.467676282737825
1.2546344804422662
1.080722778461875
0.9392355161091197
0.8243752951345811
0.7313572195867121
0.6563014433027885
0.5960736812065823
0.5481374287176263
0.51043556078363
0.4812999491167732
0.4593812477130078
0.4435909033956268
0.4330507482141986
0.42704931268720064
0.42500583921788687
0.4264424335507778
0.43096344554617333
0.4382408764972228
0.4480057341271278
0.4600466396149797
0.47421716639620115
0.49045213902905793
0.5087914822534185
0.5294097313837833
0.5526502787867074
0.5790648521843738
0.6094164224202827
0.6445712572826694
0.6854874771378339
0.7332634918780617
0.7890554706089641
0.8541675515921222
0.9302616051562818
1.019139479334793
1.1223717437006095
1.2411796152671781
1.3763225518764992
1.5279347236075176
1.6953800138705495
1.8771550785386903
2.0708618936631864
2.273268921524423
2.4804629098025304
2.688075508272326
2.8915519714551374
3.086419751643335
3.268506988764707
3.4340532000063253
3.5796567749191768
3.701972101376289
3.7970879165459355
3.8595233470665953
3.8807419379888564
3.847240146010552
3.738798946256892
3.5288035159164775
3.191047842640677
2.719331633005641
2.159840854582491
1.6266439136152189
1.2481033436282991
1.0650428525764015
1.0104873765203797
1.0011961782197845
1.0001241461703283
1.000012588354348
1.0000012596117023
1.0000001246668138
1.0000000122202206
1.0000000011875803
1.0000000001145166
1.0000000000109648
1.000000000001043
1.0000000000000981
1.0000000000000087
1.0000000000000007
1.0
1.0
1.0
1.0
1.0
1.0
1.0
1.0
1.0
1.0
1.0
1.0
1.0
1.0
1.0
1.0
1.0
1.0
1.0
2.8887882176867477
2.677584723930222
2.2499793246561883
1.8573342895427658
1.5405310041028029
1.2875295024814275
1.0855212364058702
0.9247896146523635
0.7971684834221344
0.6960166849085194
0.6160573510910473
0.553115914452011
0.5038808906927355
0.4657200145209814
0.4365470724665251
0.4147230261312272
0.39897506635224667
0.388323350617141
0.3820130989867958
0.37945506707075427
0.38017794428483076
0.3837933030430367
0.38997077541512454
0.39842068082594695
0.40888322647106645
0.42112565527326884
0.43494912117692675
0.4502054197277073
0.4668213755188093
0.4848278856063379
0.5043919907927755
0.5258522316060443
0.5497567067994444
0.5768247082617812
0.6079047699011119
0.644028924101928
0.6863939326745718
0.7362921458572868
0.7952777726635769
0.8652799809607854
0.9483039273342689
1.0461778452466661
1.1604581285111668
1.2922515886872712
1.4420109968070547
1.6093479190938362
1.7929019044804133
1.9902941506865404
2.198179913825064
2.412406797216461
2.6282657680446704
2.8407998452723016
3.0451209190823367
3.236676723568606
3.4114115381127834
3.5657389026589614
3.6962531523089863
3.7991347764356926
3.8691332672667142
3.898012882457826
3.8725065574884425
3.772289827837246
3.569839490132245
3.236739108197053
2.763421306183475
2.193843834918032
1.6451752170747314
1.2538593106149818
1.0654602435729532
1.010247302188196
1.0011299504589608
1.000113834532533
1.0000112407917112
1.0000010979813312
1.0000001062897388
1.0000000102076259
1.0000000009732817
1.0000000000921976
1.0000000000086815
1.0000000000008127
1.0000000000000755
1.0000000000000067
1.0000000000000004
1.0
1.0
1.0
1.0
1.0
1.0
1.0
1.0
1.0
1.0
1.0
1.0
1.0
1.0
1.0
1.0
1.0
1.0
2.7794215396497766
2.544475620352606
2.082112061451693
1.6778866095815281
1.364943688789371
1.1230383559240968
0.9352717091706422
0.7897888419206284
0.6772142263885899
0.5902659020414841
0.523321039897908
0.47201668221441545
0.4329526026082542
0.40348780558149044
0.38159888375405265
0.36576896817392507
0.3548871825788087
0.34815212766850573
0.34498311551672234
0.34494624532466855
0.347699438374679
0.35295502815404806
0.3604548040631384
0.3699527115582318
0.3812036593319419
0.39396031845119084
0.40798045856740495
0.42304515888938826
0.4389848872388729
0.4557090210217896
0.4732361127263856
0.49172475012405537
0.5115081409633488
0.5330985353075014
0.5571587266226534
0.5845417856807235
0.6163167915638114
0.6537170742781492
0.6981592775921717
0.7514332184343637
0.8156475807805934
0.8929596824653937
0.9854634880499502
1.0950453889318987
1.2231602199712943
1.3705864670617496
1.5372004372586594
1.7218060371213835
1.9220607750437266
2.1345224432975356
2.3548158413388283
2.577906391653662
2.7984469347307916
3.0111414433030723
3.211063851847604
3.3938586628010774
3.5557298480196433
3.693184902924049
3.8024532974503558
3.8784299228648362
3.9130533569637698
3.893131415294412
3.7980776080942578
3.5994250845627205
3.2669169392440365
2.7887821997955022
2.208745723189905
1.6485146674376618
1.251114020432794
1.0629326971782433
1.0094620196973734
1.001007434455989
1.0000987756592772
1.000009524375793
1.0000009103421532