# vtk DataFile Version 3.0 
shock_diffraction_time_series_493_.vtk
ASCII
DATASET UNSTRUCTURED_GRID
POINTS         10201 double
0.0 0.0 0.0
0.01 0.0 0.0
0.02 0.0 0.0
0.03 0.0 0.0
0.04 0.0 0.0
0.05 0.0 0.0
0.06 0.0 0.0
0.07 0.0 0.0
0.08 0.0 0.0
0.09 0.0 0.0
0.1 0.0 0.0
0.11 0.0 0.0
0.12 0.0 0.0
0.13 0.0 0.0
0.14 0.0 0.0
0.15 0.0 0.0
0.16 0.0 0.0
0.17 0.0 0.0
0.18 0.0 0.0
0.19 0.0 0.0
0.2 0.0 0.0
0.21 0.0 0.0
0.22 0.0 0.0
0.23 0.0 0.0
0.24 0.0 0.0
0.25 0.0 0.0
0.26 0.0 0.0
0.27 0.0 0.0
0.28 0.0 0.0
0.29 0.0 0.0
0.3 0.0 0.0
0.31 0.0 0.0
0.32 0.0 0.0
0.33 0.0 0.0
0.34 0.0 0.0
0.35000000000000003 0.0 0.0
0.36 0.0 0.0
0.37 0.0 0.0
0.38 0.0 0.0
0.39 0.0 0.0
0.4 0.0 0.0
0.41000000000000003 0.0 0.0
0.42 0.0 0.0
0.43 0.0 0.0
0.44 0.0 0.0
0.45 0.0 0.0
0.46 0.0 0.0
0.47000000000000003 0.0 0.0
0.48 0.0 0.0
0.49 0.0 0.0
0.5 0.0 0.0
0.51 0.0 0.0
0.52 0.0 0.0
0.53 0.0 0.0
0.54 0.0 0.0
0.55 0.0 0.0
0.56 0.0 0.0
0.5700000000000001 0.0 0.0
0.58 0.0 0.0
0.59 0.0 0.0
0.6 0.0 0.0
0.61 0.0 0.0
0.62 0.0 0.0
0.63 0.0 0.0
0.64 0.0 0.0
0.65 0.0 0.0
0.66 0.0 0.0
0.67 0.0 0.0
0.68 0.0 0.0
0.6900000000000001 0.0 0.0
0.7000000000000001 0.0 0.0
0.71 0.0 0.0
0.72 0.0 0.0
0.73 0.0 0.0
0.74 0.0 0.0
0.75 0.0 0.0
0.76 0.0 0.0
0.77 0.0 0.0
0.78 0.0 0.0
0.79 0.0 0.0
0.8 0.0 0.0
0.81 0.0 0.0
0.8200000000000001 0.0 0.0
0.8300000000000001 0.0 0.0
0.84 0.0 0.0
0.85 0.0 0.0
0.86 0.0 0.0
0.87 0.0 0.0
0.88 0.0 0.0
0.89 0.0 0.0
0.9 0.0 0.0
0.91 0.0 0.0
0.92 0.0 0.0
0.93 0.0 0.0
0.9400000000000001 0.0 0.0
0.9500000000000001 0.0 0.0
0.96 0.0 0.0
0.97 0.0 0.0
0.98 0.0 0.0
0.99 0.0 0.0
1.0 0.0 0.0
0.0 0.01 0.0
0.01 0.01 0.0
0.02 0.01 0.0
0.03 0.01 0.0
0.04 0.01 0.0
0.05 0.01 0.0
0.06 0.01 0.0
0.07 0.01 0.0
0.08 0.01 0.0
0.09 0.01 0.0
0.1 0.01 0.0
0.11 0.01 0.0
0.12 0.01 0.0
0.13 0.01 0.0
0.14 0.01 0.0
0.15 0.01 0.0
0.16 0.01 0.0
0.17 0.01 0.0
0.18 0.01 0.0
0.19 0.01 0.0
0.2 0.01 0.0
0.21 0.01 0.0
0.22 0.01 0.0
0.23 0.01 0.0
0.24 0.01 0.0
0.25 0.01 0.0
0.26 0.01 0.0
0.27 0.01 0.0
0.28 0.01 0.0
0.29 0.01 0.0
0.3 0.01 0.0
0.31 0.01 0.0
0.32 0.01 0.0
0.33 0.01 0.0
0.34 0.01 0.0
0.35000000000000003 0.01 0.0
0.36 0.01 0.0
0.37 0.01 0.0
0.38 0.01 0.0
0.39 0.01 0.0
0.4 0.01 0.0
0.41000000000000003 0.01 0.0
0.42 0.01 0.0
0.43 0.01 0.0
0.44 0.01 0.0
0.45 0.01 0.0
0.46 0.01 0.0
0.47000000000000003 0.01 0.0
0.48 0.01 0.0
0.49 0.01 0.0
0.5 0.01 0.0
0.51 0.01 0.0
0.52 0.01 0.0
0.53 0.01 0.0
0.54 0.01 0.0
0.55 0.01 0.0
0.56 0.01 0.0
0.5700000000000001 0.01 0.0
0.58 0.01 0.0
0.59 0.01 0.0
0.6 0.01 0.0
0.61 0.01 0.0
0.62 0.01 0.0
0.63 0.01 0.0
0.64 0.01 0.0
0.65 0.01 0.0
0.66 0.01 0.0
0.67 0.01 0.0
0.68 0.01 0.0
0.6900000000000001 0.01 0.0
0.7000000000000001 0.01 0.0
0.71 0.01 0.0
0.72 0.01 0.0
0.73 0.01 0.0
0.74 0.01 0.0
0.75 0.01 0.0
0.76 0.01 0.0
0.77 0.01 0.0
0.78 0.01 0.0
0.79 0.01 0.0
0.8 0.01 0.0
0.81 0.01 0.0
0.8200000000000001 0.01 0.0
0.8300000000000001 0.01 0.0
0.84 0.01 0.0
0.85 0.01 0.0
0.86 0.01 0.0
0.87 0.01 0.0
0.88 0.01 0.0
0.89 0.01 0.0
0.9 0.01 0.0
0.91 0.01 0.0
0.92 0.01 0.0
0.93 0.01 0.0
0.9400000000000001 0.01 0.0
0.9500000000000001 0.01 0.0
0.96 0.01 0.0
0.97 0.01 0.0
0.98 0.01 0.0
0.99 0.01 0.0
1.0 0.01 0.0
0.0 0.02 0.0
0.01 0.02 0.0
0.02 0.02 0.0
0.03 0.02 0.0
0.04 0.02 0.0
0.05 0.02 0.0
0.06 0.02 0.0
0.07 0.02 0.0
0.08 0.02 0.0
0.09 0.02 0.0
0.1 0.02 0.0
0.11 0.02 0.0
0.12 0.02 0.0
0.13 0.02 0.0
0.14 0.02 0.0
0.15 0.02 0.0
0.16 0.02 0.0
0.17 0.02 0.0
0.18 0.02 0.0
0.19 0.02 0.0
0.2 0.02 0.0
0.21 0.02 0.0
0.22 0.02 0.0
0.23 0.02 0.0
0.24 0.02 0.0
0.25 0.02 0.0
0.26 0.02 0.0
0.27 0.02 0.0
0.28 0.02 0.0
0.29 0.02 0.0
0.3 0.02 0.0
0.31 0.02 0.0
0.32 0.02 0.0
0.33 0.02 0.0
0.34 0.02 0.0
0.35000000000000003 0.02 0.0
0.36 0.02 0.0
0.37 0.02 0.0
0.38 0.02 0.0
0.39 0.02 0.0
0.4 0.02 0.0
0.41000000000000003 0.02 0.0
0.42 0.02 0.0
0.43 0.02 0.0
0.44 0.02 0.0
0.45 0.02 0.0
0.46 0.02 0.0
0.47000000000000003 0.02 0.0
0.48 0.02 0.0
0.49 0.02 0.0
0.5 0.02 0.0
0.51 0.02 0.0
0.52 0.02 0.0
0.53 0.02 0.0
0.54 0.02 0.0
0.55 0.02 0.0
0.56 0.02 0.0
0.5700000000000001 0.02 0.0
0.58 0.02 0.0
0.59 0.02 0.0
0.6 0.02 0.0
0.61 0.02 0.0
0.62 0.02 0.0
0.63 0.02 0.0
0.64 0.02 0.0
0.65 0.02 0.0
0.66 0.02 0.0
0.67 0.02 0.0
0.68 0.02 0.0
0.6900000000000001 0.02 0.0
0.7000000000000001 0.02 0.0
0.71 0.02 0.0
0.72 0.02 0.0
0.73 0.02 0.0
0.74 0.02 0.0
0.75 0.02 0.0
0.76 0.02 0.0
0.77 0.02 0.0
0.78 0.02 0.0
0.79 0.02 0.0
0.8 0.02 0.0
0.81 0.02 0.0
0.8200000000000001 0.02 0.0
0.8300000000000001 0.02 0.0
0.84 0.02 0.0
0.85 0.02 0.0
0.86 0.02 0.0
0.87 0.02 0.0
0.88 0.02 0.0
0.89 0.02 0.0
0.9 0.02 0.0
0.91 0.02 0.0
0.92 0.02 0.0
0.93 0.02 0.0
0.9400000000000001 0.02 0.0
0.9500000000000001 0.02 0.0
0.96 0.02 0.0
0.97 0.02 0.0
0.98 0.02 0.0
0.99 0.02 0.0
1.0 0.02 0.0
0.0 0.03 0.0
0.01 0.03 0.0
0.02 0.03 0.0
0.03 0.03 0.0
0.04 0.03 0.0
0.05 0.03 0.0
0.06 0.03 0.0
0.07 0.03 0.0
0.08 0.03 0.0
0.09 0.03 0.0
0.1 0.03 0.0
0.11 0.03 0.0
0.12 0.03 0.0
0.13 0.03 0.0
0.14 0.03 0.0
0.15 0.03 0.0
0.16 0.03 0.0
0.17 0.03 0.0
0.18 0.03 0.0
0.19 0.03 0.0
0.2 0.03 0.0
0.21 0.03 0.0
0.22 0.03 0.0
0.23 0.03 0.0
0.24 0.03 0.0
0.25 0.03 0.0
0.26 0.03 0.0
0.27 0.03 0.0
0.28 0.03 0.0
0.29 0.03 0.0
0.3 0.03 0.0
0.31 0.03 0.0
0.32 0.03 0.0
0.33 0.03 0.0
0.34 0.03 0.0
0.35000000000000003 0.03 0.0
0.36 0.03 0.0
0.37 0.03 0.0
0.38 0.03 0.0
0.39 0.03 0.0
0.4 0.03 0.0
0.41000000000000003 0.03 0.0
0.42 0.03 0.0
0.43 0.03 0.0
0.44 0.03 0.0
0.45 0.03 0.0
0.46 0.03 0.0
0.47000000000000003 0.03 0.0
0.48 0.03 0.0
0.49 0.03 0.0
0.5 0.03 0.0
0.51 0.03 0.0
0.52 0.03 0.0
0.53 0.03 0.0
0.54 0.03 0.0
0.55 0.03 0.0
0.56 0.03 0.0
0.5700000000000001 0.03 0.0
0.58 0.03 0.0
0.59 0.03 0.0
0.6 0.03 0.0
0.61 0.03 0.0
0.62 0.03 0.0
0.63 0.03 0.0
0.64 0.03 0.0
0.65 0.03 0.0
0.66 0.03 0.0
0.67 0.03 0.0
0.68 0.03 0.0
0.6900000000000001 0.03 0.0
0.7000000000000001 0.03 0.0
0.71 0.03 0.0
0.72 0.03 0.0
0.73 0.03 0.0
0.74 0.03 0.0
0.75 0.03 0.0
0.76 0.03 0.0
0.77 0.03 0.0
0.78 0.03 0.0
0.79 0.03 0.0
0.8 0.03 0.0
0.81 0.03 0.0
0.8200000000000001 0.03 0.0
0.8300000000000001 0.03 0.0
0.84 0.03 0.0
0.85 0.03 0.0
0.86 0.03 0.0
0.87 0.03 0.0
0.88 0.03 0.0
0.89 0.03 0.0
0.9 0.03 0.0
0.91 0.03 0.0
0.92 0.03 0.0
0.93 0.03 0.0
0.9400000000000001 0.03 0.0
0.9500000000000001 0.03 0.0
0.96 0.03 0.0
0.97 0.03 0.0
0.98 0.03 0.0
0.99 0.03 0.0
1.0 0.03 0.0
0.0 0.04 0.0
0.01 0.04 0.0
0.02 0.04 0.0
0.03 0.04 0.0
0.04 0.04 0.0
0.05 0.04 0.0
0.06 0.04 0.0
0.07 0.04 0.0
0.08 0.04 0.0
0.09 0.04 0.0
0.1 0.04 0.0
0.11 0.04 0.0
0.12 0.04 0.0
0.13 0.04 0.0
0.14 0.04 0.0
0.15 0.04 0.0
0.16 0.04 0.0
0.17 0.04 0.0
0.18 0.04 0.0
0.19 0.04 0.0
0.2 0.04 0.0
0.21 0.04 0.0
0.22 0.04 0.0
0.23 0.04 0.0
0.24 0.04 0.0
0.25 0.04 0.0
0.26 0.04 0.0
0.27 0.04 0.0
0.28 0.04 0.0
0.29 0.04 0.0
0.3 0.04 0.0
0.31 0.04 0.0
0.32 0.04 0.0
0.33 0.04 0.0
0.34 0.04 0.0
0.35000000000000003 0.04 0.0
0.36 0.04 0.0
0.37 0.04 0.0
0.38 0.04 0.0
0.39 0.04 0.0
0.4 0.04 0.0
0.41000000000000003 0.04 0.0
0.42 0.04 0.0
0.43 0.04 0.0
0.44 0.04 0.0
0.45 0.04 0.0
0.46 0.04 0.0
0.47000000000000003 0.04 0.0
0.48 0.04 0.0
0.49 0.04 0.0
0.5 0.04 0.0
0.51 0.04 0.0
0.52 0.04 0.0
0.53 0.04 0.0
0.54 0.04 0.0
0.55 0.04 0.0
0.56 0.04 0.0
0.5700000000000001 0.04 0.0
0.58 0.04 0.0
0.59 0.04 0.0
0.6 0.04 0.0
0.61 0.04 0.0
0.62 0.04 0.0
0.63 0.04 0.0
0.64 0.04 0.0
0.65 0.04 0.0
0.66 0.04 0.0
0.67 0.04 0.0
0.68 0.04 0.0
0.6900000000000001 0.04 0.0
0.7000000000000001 0.04 0.0
0.71 0.04 0.0
0.72 0.04 0.0
0.73 0.04 0.0
0.74 0.04 0.0
0.75 0.04 0.0
0.76 0.04 0.0
0.77 0.04 0.0
0.78 0.04 0.0
0.79 0.04 0.0
0.8 0.04 0.0
0.81 0.04 0.0
0.8200000000000001 0.04 0.0
0.8300000000000001 0.04 0.0
0.84 0.04 0.0
0.85 0.04 0.0
0.86 0.04 0.0
0.87 0.04 0.0
0.88 0.04 0.0
0.89 0.04 0.0
0.9 0.04 0.0
0.91 0.04 0.0
0.92 0.04 0.0
0.93 0.04 0.0
0.9400000000000001 0.04 0.0
0.9500000000000001 0.04 0.0
0.96 0.04 0.0
0.97 0.04 0.0
0.98 0.04 0.0
0.99 0.04 0.0
1.0 0.04 0.0
0.0 0.05 0.0
0.01 0.05 0.0
0.02 0.05 0.0
0.03 0.05 0.0
0.04 0.05 0.0
0.05 0.05 0.0
0.06 0.05 0.0
0.07 0.05 0.0
0.08 0.05 0.0
0.09 0.05 0.0
0.1 0.05 0.0
0.11 0.05 0.0
0.12 0.05 0.0
0.13 0.05 0.0
0.14 0.05 0.0
0.15 0.05 0.0
0.16 0.05 0.0
0.17 0.05 0.0
0.18 0.05 0.0
0.19 0.05 0.0
0.2 0.05 0.0
0.21 0.05 0.0
0.22 0.05 0.0
0.23 0.05 0.0
0.24 0.05 0.0
0.25 0.05 0.0
0.26 0.05 0.0
0.27 0.05 0.0
0.28 0.05 0.0
0.29 0.05 0.0
0.3 0.05 0.0
0.31 0.05 0.0
0.32 0.05 0.0
0.33 0.05 0.0
0.34 0.05 0.0
0.35000000000000003 0.05 0.0
0.36 0.05 0.0
0.37 0.05 0.0
0.38 0.05 0.0
0.39 0.05 0.0
0.4 0.05 0.0
0.41000000000000003 0.05 0.0
0.42 0.05 0.0
0.43 0.05 0.0
0.44 0.05 0.0
0.45 0.05 0.0
0.46 0.05 0.0
0.47000000000000003 0.05 0.0
0.48 0.05 0.0
0.49 0.05 0.0
0.5 0.05 0.0
0.51 0.05 0.0
0.52 0.05 0.0
0.53 0.05 0.0
0.54 0.05 0.0
0.55 0.05 0.0
0.56 0.05 0.0
0.5700000000000001 0.05 0.0
0.58 0.05 0.0
0.59 0.05 0.0
0.6 0.05 0.0
0.61 0.05 0.0
0.62 0.05 0.0
0.63 0.05 0.0
0.64 0.05 0.0
0.65 0.05 0.0
0.66 0.05 0.0
0.67 0.05 0.0
0.68 0.05 0.0
0.6900000000000001 0.05 0.0
0.7000000000000001 0.05 0.0
0.71 0.05 0.0
0.72 0.05 0.0
0.73 0.05 0.0
0.74 0.05 0.0
0.75 0.05 0.0
0.76 0.05 0.0
0.77 0.05 0.0
0.78 0.05 0.0
0.79 0.05 0.0
0.8 0.05 0.0
0.81 0.05 0.0
0.8200000000000001 0.05 0.0
0.8300000000000001 0.05 0.0
0.84 0.05 0.0
0.85 0.05 0.0
0.86 0.05 0.0
0.87 0.05 0.0
0.88 0.05 0.0
0.89 0.05 0.0
0.9 0.05 0.0
0.91 0.05 0.0
0.92 0.05 0.0
0.93 0.05 0.0
0.9400000000000001 0.05 0.0
0.9500000000000001 0.05 0.0
0.96 0.05 0.0
0.97 0.05 0.0
0.98 0.05 0.0
0.99 0.05 0.0
1.0 0.05 0.0
0.0 0.06 0.0
0.01 0.06 0.0
0.02 0.06 0.0
0.03 0.06 0.0
0.04 0.06 0.0
0.05 0.06 0.0
0.06 0.06 0.0
0.07 0.06 0.0
0.08 0.06 0.0
0.09 0.06 0.0
0.1 0.06 0.0
0.11 0.06 0.0
0.12 0.06 0.0
0.13 0.06 0.0
0.14 0.06 0.0
0.15 0.06 0.0
0.16 0.06 0.0
0.17 0.06 0.0
0.18 0.06 0.0
0.19 0.06 0.0
0.2 0.06 0.0
0.21 0.06 0.0
0.22 0.06 0.0
0.23 0.06 0.0
0.24 0.06 0.0
0.25 0.06 0.0
0.26 0.06 0.0
0.27 0.06 0.0
0.28 0.06 0.0
0.29 0.06 0.0
0.3 0.06 0.0
0.31 0.06 0.0
0.32 0.06 0.0
0.33 0.06 0.0
0.34 0.06 0.0
0.35000000000000003 0.06 0.0
0.36 0.06 0.0
0.37 0.06 0.0
0.38 0.06 0.0
0.39 0.06 0.0
0.4 0.06 0.0
0.41000000000000003 0.06 0.0
0.42 0.06 0.0
0.43 0.06 0.0
0.44 0.06 0.0
0.45 0.06 0.0
0.46 0.06 0.0
[...]
POINT_DATA  10201
FIELD  FlowField  4
Density    1 10201  double
3.1979472329487426
3.0637840690974816
2.7599367908220738
2.4256942039208624
2.1128369138443697
1.835417918846586
1.595572814838563
1.3910941034020214
1.2185681941519284
1.0738602416502796
0.9528070636855073
0.8516171299435595
0.7670152264736703
0.696258500969638
0.6370960708633768
0.5877063678398389
0.5466272611485419
0.5126869738289022
0.4849415459622027
0.4626224676004468
0.44509516664772847
0.4318267129748323
0.42236065881407736
0.4162979513740659
0.4132837594153851
0.4129998552480199
0.41516130970646176
0.41951575523332246
0.4258438563862996
0.433960546441932
0.4437173916414633
0.45500673852496454
0.46776810972390864
0.48199692655051174
0.49775537887342536
0.51518527892676
0.5345229538403231
0.5561165035896634
0.5804458038140028
0.6081381226340588
0.6398953415061613
0.6764494439690653
0.7186202066309239
0.7672842739749426
0.8232909690961455
0.8875752943841195
0.961341435262479
1.04585628787223
1.1421739945224672
1.251091696260247
1.3730952763858453
1.5082806794765136
1.6562735187304103
1.8161664452214694
1.9864913782668219
2.1652341936641926
2.3498961326852044
2.5376007076658444
2.725238238917539
2.909634052747971
3.0877209311478455
3.2566942617004644
3.4141317447398576
3.5580551436832595
3.6869124165116878
3.799452073931673
3.8944644928231558
3.97036274316158
4.024529141602752
4.052333910801412
4.045742606895741
3.991518753162524
3.869431251362784
3.6520009785224703
3.309601909485364
2.827863331628104
2.2422213443043093
1.6674733935213903
1.254217620049396
1.0609353985170547
1.0089603216383396
1.0010322303150634
1.0001123399116807
1.000011976482564
1.0000012579672102
1.0000001304511934
1.0000000133744344
1.0000000013572214
1.0000000001364566
1.0000000000136033
1.0000000000013454
1.000000000000132
1.0000000000000127
1.0000000000000009
1.0
1.0
1.0
1.0
1.0
1.0
1.0
3.1502234000999074
3.0083005563683374
2.6888302924428213
2.34180654594147
2.0221166266027
1.7428547147982083
1.504474948031738
1.3036199002868112
1.136027049109167
0.9969577195007349
0.8818557339815587
0.7866788246094488
0.7079902342198355
0.642938108510821
0.5891917960842277
0.5448664441430022
0.5084486322177004
0.4787284030441287
0.4547401140559688
0.4357124508740774
0.42102626702049584
0.4101784935254668
0.40275138760036566
0.39838778294163296
0.3967733631530679
0.3976259494610497
0.4006903348885527
0.4057365169150797
0.4125596371151585
0.42098098786439964
0.4308503419821206
0.44205018990527906
0.45450226696442075
0.4681763371730198
0.4831009307267542
0.49937577411865086
0.5171859198580249
0.5368179262050223
0.5586786756936198
0.5833139821327669
0.6113714364399803
0.6435477528668211
0.6806286514691632
0.7234923095687285
0.773035560208845
0.8302047446750924
0.896156625712795
0.9722193833310643
1.0596345920884525
1.1594294724813887
1.2723715926086268
1.3988817836176533
1.5389372398045424
1.691990885286212
1.8569178257065528
2.0319994466907447
2.2149567512698716
2.403034683204403
2.5931322613571197
2.7819670506481424
2.9662566656657803
3.1428962506902076
3.3091091558251264
3.46254843992305
3.6013311939957626
3.723976297733154
3.829217921764682
3.915679420578213
3.9813478856165228
4.022763112507914
4.0338396026527725
4.004274866894978
3.9177308625546847
3.7507131803899085
3.474779474065259
3.067545236936689
2.538514066275866
1.9613395381470264
1.4675765288621136
1.16172827164928
1.0361856565289274
1.005113730382098
1.0005702717588325
1.0000602839217758
1.0000062589114669
1.0000006416132932
1.0000000650555028
1.0000000065318626
1.0000000006500493
1.0000000000641742
1.0000000000062887
1.000000000000612
1.0000000000000588
1.0000000000000053
1.0000000000000004
1.0
1.0
1.0
1.0
1.0
1.0
3.053271625046845
2.895595279606453
2.545289091239319
2.1747034284578644
1.8441989992387229
1.5640209066034663
1.3308874403046211
1.1390832084187574
0.982626150530413
0.8556283314599263
0.7528218897126399
0.6697315313005507
0.6026538141873543
0.5485651566694912
0.5050168313340123
0.47003950867343325
0.4420630177432766
0.4198499999187476
0.4024395890495729
0.3890968785974832
0.37926523312857174
0.3725209888398708
0.36853258049977533
0.3670272280685448
0.3677673432495339
0.3705364677315626
0.3751324364347696
0.3813647887108367
0.3890542325452941
0.398033334129667
0.40814867467582555
0.4192650799569115
0.43127225168785044
0.44409360003437715
0.457696734622046
0.4721051326962419
0.4874108471827836
0.5037885673564708
0.5215118300485133
0.5409727269920565
0.5626905673439643
0.5872674461975151
0.6153986447255758
0.6479138809168173
0.6857389286382195
0.7298483214498548
0.781324754938787
0.8415051669711697
0.9118727635867919
0.9938272287233695
1.08860987717759
1.1972286121901874
1.3203413581168064
1.4581364441383018
1.6102277161415985
1.7755842729549447
1.9525051365067663
2.1386457554535405
2.331103569466511
2.5265582254274075
2.7214534535129706
2.9122016706904184
3.095385991877413
3.267935408819494
3.427252951603621
3.571269811715755
3.698390849762768
3.8073304880905257
3.8968073083147683
3.9650234898843078
4.0088620199476175
4.022708019449855
3.9968200540716157
3.91538288022929
3.755106470288729
3.4870495784021136
3.0872713438079167
2.562617669176247
1.9838080573224777
1.4819560059277692
1.1670595757923077
1.0370616187707717
1.0051211369424684
1.0005550577164783
1.0000571277250434
1.0000057876483566
1.0000005800433984
1.0000000575923946
1.0000000056706235
1.0000000005541114
1.0000000000537712
1.0000000000051845
1.0000000000004965
1.0000000000000466
1.0000000000000042
1.0000000000000004
1.0
1.0
1.0
1.0
1.0
2.951299725550363
2.777683304847595
2.3980255005050655
2.0084832013350598
1.6729910440036264
1.3971816850591832
1.1735573594720685
0.9939953459734662
0.8508327670433834
0.737178575188841
0.6472061971689139
0.5761384993339418
0.5201109519604217
0.47601610907541236
0.44136877558966037
0.41419974042645613
0.3929726740202137
0.37651524390790747
0.36395685390663557
0.3546686710856583
0.3482051694882851
0.3442493750656667
0.34256558932902564
0.3429630848023725
0.3452721721471105
0.34933118183011436
0.35498089130850524
0.3620627306736753
0.37041839608886085
0.3798902170191904
0.39032283374309873
0.4015670847880527
0.41348656146679486
0.4259665352865182
0.43892444913894735
0.4523211887054849
0.46617274369053185
0.48056238667509993
0.49565407153801705
0.5117083044513153
0.5291002941577853
0.5483031888597186
0.5698861321460633
0.5945541323976664
0.6231480758646855
0.656615277182234
0.6959886051033176
0.7424854363430364
0.7975885714107184
0.8628811749394847
0.939899224811175
1.0300814725773635
1.134661940412304
1.2545314571503972
1.39009600962272
1.5411512800555618
1.7067894004655628
1.8853586797288275
2.0744849736280537
2.2711559357184288
2.471868223653841
2.67282493123069
2.870161211962656
3.060172018756201
3.239514355255626
3.4053603880158834
3.5554589649389277
3.6880973302434916
3.801958666511868
3.8958158111521017
3.968007234533981
4.015626285585611
4.033320048571246
4.011610356940691
3.934842942303283
3.77957115757798
3.5160419570352888
3.1184503212347643
2.590845598560647
2.002879236905972
1.489838640430304
1.168055761426862
1.036515316127731
1.004895914592311
1.0005158976945894
1.0000518092266026
1.0000051329703965
1.0000005039401043
1.000000049086963
1.000000004747481
1.0000000004561884
1.0000000000435754
1.0000000000041394
1.0000000000003908
1.0000000000000366
1.0000000000000033
1.0000000000000002
1.0
1.0
1.0
1.0
2.8418764249490334
2.652726902703953
2.246526351345651
1.8436879354093891
1.509104298676291
1.2423221191282663
1.0316348530894637
0.8665958074457245
0.7380505446188188
0.6383059063868058
0.5611380482251263
0.5015892886017012
0.45572824314278015
0.4204461075636999
0.39330339540511433
0.37241667360144437
0.3563685740766467
0.3441279467494428
0.33497386421442493
0.328422636679133
0.3241598544233617
0.3219806323951518
0.3217413252261282
0.3233249443448516
0.3266202510206988
0.33151181114942396
0.3378766737699269
0.34558364456664026
0.354492890671427
0.3644556341981466
0.3753150086081074
0.38690944620856194
0.39907928020054856
0.4116761732067642
0.4245742028394298
0.43768139302119125
0.4509509402700566
0.4643919927920887
0.47808048058407643
0.49217120894701866
0.5069129996099314
0.5226461917667022
0.5398022644791007
0.5589349975620319
0.580736688488734
0.6060324154352618
0.6357693650627176
0.67103331080995
0.7131637948914462
0.7637316132226728
0.8243900900278278
0.8968175075854953
0.9826406144770938
1.0833081758581649
1.1999399312670822
1.3331636708461783
1.4829641551589232
1.648568940653289
1.8283887024545749
2.0200298889517447
2.220381975669139
2.4257719391162693
2.6321763395984306
2.8354684267774433
3.0316704603825406
3.217184615885575
3.38896194640911
3.54457475387957
3.6822024016057804
3.8004974704008188
3.8982725711135284
3.973968439101135
4.024826597263466
4.045655570690321
4.027090363390773
3.9534219532371955
3.800777309738953
3.538363716789287
3.1387316720927556
2.60464108169101
2.0072179358052558
1.4868899263408648
1.163803569647029
1.0344856495509416
1.004455207296947
1.000456657034972
1.0000448397524642
1.0000043530243499
1.000000419396656
1.0000000401409002
1.0000000038189156
1.000000000361328
1.0000000000340141
1.0000000000031868
1.0000000000002969
1.000000000000027
1.0000000000000024
1.0000000000000002
1.0
1.0
1.0
2.724679564191687
2.5210669086234025
2.092430647035366
1.6826469486811715
1.354567838835462
1.1006633851490115
0.9053921319352219
0.7561970703020635
0.642727056779029
0.5567222152145783
0.4917260574923119
0.4427161418269155
0.40578578168325097
0.37790962507056414
0.35677884782766905
0.34067725218918155
0.3283754641425772
0.31903277815650444
0.31210552236399985
0.30726429816668177
0.3043224190960009
0.3031770761555508
0.3037644887217821
0.30602970292917453
0.3099099525604552
0.3153281396760461
0.32219164560982766
0.33039234033232695
0.3398057875689778
0.35028992398875974
0.3616848967278403
0.3738159917143119
0.38650060417487736
0.39955873447540907
0.41282536527321523
0.42616295883437294
0.43947289529474143
0.45270541881532345
0.46586838850528317
0.47903596027582607
0.4923591142191569
0.5060654171547334
0.5204620514570792
0.5359597498934744
0.5530903418248998
0.5725156334577443
0.5950350397214016
0.6215892243640115
0.6533317849359781
0.6916810499570496
0.7382439906383405
0.7947539119165435
0.8630272252611938
0.944864583040443
1.0419146117790754
1.1555095345964883
1.2864867810370233
1.4350152492796087
1.6004559866470074
1.7812853633261712
1.9750956963789879
2.178682945399861
2.3882127468584775
2.599447189547276
2.808012234693848
3.0096756824330924
3.2006028671765505
3.377534381085122
3.5378794914046345
3.6797242149604665
3.8016930808707734
3.902627453116445
3.9810401351119653
4.034264921341643
4.057182934586101
4.040409011369558
3.9679993047880053
3.815465282069412
3.550915302328648
3.1456719080731244
2.602576295173489
1.9963086557218501
1.4731926467149776
1.1546308142517598
1.0311977215780281
1.0038592542905433
1.0003851715079477
1.000037055094694
1.0000035315720819
1.0000003344744026
1.0000000315036492
1.00000000295234
1.0000000002753922
1.0000000000255778
1.0000000000023657
1.0000000000002176
1.0000000000000198
1.0000000000000016
1.0
1.0
1.0
2.6002254999729795
2.3839311373583736
1.9381421216086283
1.5279778551744276
1.2113271465374593
0.9732406670360895
0.7949061174289933
0.6619963111083298
0.563305631794237
0.49024565348967164
0.43628974880701404
0.3964744284804752
0.3670132969285377
0.3450429353439815
0.32845852397315956
0.3157760210089867
0.3059979434508402
0.2984920378402762
0.29289059118855065
0.2890058020690077
0.28676127746130076
0.28613862164123605
0.2871383540644416
0.289754856586224
0.29396390979089393
0.2997191696071623
0.30695262838483683
0.3155749353111321
0.32547385951468966
0.3365116985634557
0.3485239441307738
0.36132176583123116
0.37469958199106623
0.3884470690583961
0.4023634027182066
0.41627131942646145
0.43002936172522455
0.44354158431746915
0.45676486027647867
0.4697147953486048
0.4824717443884722
0.49517825150243283
0.5080430702960648
0.5213583161749338
0.535512797552087
0.5510068918040381
0.5684692215391768
0.5886698049143645
0.6125643836159776
0.6413584666906842
0.6764919997389837
0.7196031773437206
0.7725123848328259
0.8371605003621829
0.9155053698210729
1.009378008442201
1.1203051755852174
1.2493137549067068
1.396739751399114
1.5620676193449001
1.7438329024855144
1.9396130084172034
2.1461126022835026
2.3593401520791595
2.5748535897225864
2.788047555002061
2.9944574390391243
3.1900298905827595
3.371313031059196
3.5355773946273352
3.680833414801349
3.8056837472252982
3.908991012534933
3.989314292009118
4.044027530988609
4.0679936360014155
4.05166676234921
3.978677152191404
3.8237175583621665
3.553734362000201
3.139256571448959
2.584665371155454
1.9704243068315703
1.4493991129913475
1.141234132508995
1.0270024837761358
1.0031828531522575
1.0003097945366397
1.0000292591211584
1.0000027425519447
1.0000002557446463
1.0000000237391828
1.0000000021942697
1.0000000002020284
1.0000000000185327
1.000000000001694
1.0000000000001537
1.0000000000000135
1.000000000000001
1.0
1.0
2.4696310572468256
2.24311874456614
1.7863354489438015
1.3820598917048896
1.0807947504777078
0.8604933339109292
0.6996919043479983
0.582709990217549
0.4978211869793367
0.4363967923753568
0.3920499266512746
0.3599558675753323
0.3364908437489911
0.3190142308633493
0.30568477253088133
0.29528633665755405
0.28706875560531425
0.2806061796169499
0.27568817796639117
0.27224464737695886
0.27028654239005095
0.26986021202849
0.27101469641209847
0.27378154356637985
0.27816592542573026
0.2841455178543112
0.2916721390502445
0.30067201987321546
0.3110432164197574
0.3226514374578994
0.3353272280679357
0.3488677879735282
0.36304512578773984
0.3776198353007856
0.39235765168345976
0.40704560608035417
0.42150565448701693
0.43560483321439303
0.44926189106734504
0.46245122002503297
0.4752042234604346
0.48760431410946575
0.49978953794222
0.5119623052908502
0.5243979052219494
0.5374595953889747
0.5516171273274517
0.5674658532028984
0.5857646004754766
0.6074917306238344
0.6338592550153644
0.6663112295817175
0.7065317834330671
0.7564201999356549
0.8180284039611251
0.8934551359951499
0.9846949616116333
1.0934484528374886
1.2209097946476635
1.367557364706939
1.532977549146835
1.7157508904850296
1.9134307566463722
2.1226286625265565
2.3391990527645685
2.558503883623984
2.77572390876592
2.9861847100523873
3.1856345291571984
3.37045546147051
3.5378097025883286
3.6856531040995977
3.812577434338781
3.917463574375623
3.9988930756480947
4.054226295364588
4.078212465944298
4.0609950706451095
3.9855706739358574
3.8255900543229506
3.546770273256431
3.119351800882699
2.550923390091506
1.9301128605328834
1.4165978811104103
1.1246003523498649
1.0223217919706475
1.0025000970939844
1.0002378067881021
1.000022092376621
1.0000020400372862
1.0000001875842668
1.0000000171831636
1.0000000015684787
1.0000000001427005
1.0000000000129425
1.00000000000117
1.0000000000001052
1.0000000000000093
1.0000000000000007
1.0
2.3345225491013584
2.1008118022711737
1.6396139487766095
1.2467619624155755
0.9637174410763166
0.762160734073985
0.6185407480250187
0.5163338114451136
0.443851496692246
0.3926807122979761
0.3565389446227009
0.33073215870039785
0.311872837006871
0.29763261811894276
0.2864879791790531
0.2774995519663462
0.2701427969745375
0.26417310058678806
0.2595141627345113
0.2561871139793154
0.254267081165171
0.25384654381207583
0.2550087054653003
0.25781156467364863
0.26228199487573833
0.26841652359485724
0.27618375545203766
0.285524250322697
0.2963465086905194
0.3085207412489792
0.3218740282532595
0.33619098767906963
0.35122226499996745
0.36670011809723646
0.38235720969078435
0.39794658025130647
0.4132587761089629
0.42813112722030033
0.4424527732840395
0.45616809166653854
0.46927366960033573
0.48181325232142885
0.4938781507591495
0.5056084683996734
0.5171974690373468
0.5289034681307216
0.5410662398846953
0.554126666959823
0.5686638269114136
0.5854402111237877
0.6054266302462223
0.6298264974623144
0.6601026809073983
0.6979832802238449
0.7454389533451931
0.8046215673704928
0.8777557075705297
0.9669802741166167
1.0741465296999109
1.2005899879130326
1.3469036775529963
1.5127466423020222
1.696720221720786
1.8963383587014704
2.1081116289658794
2.327741897452716
2.550403807054645
2.771082376051856
2.9849142702768106
3.18747385630511
3.3750123732577797
3.54461719043091
3.694214271613018
3.822398554094905
3.9280675901492517
4.009801208687892
4.064888978620097
4.087863240817492
4.068394145916325
3.988618600852208
3.820906431146435
3.5296994953280527
3.085596844552261
2.5013569540359066
1.876232052617301
1.376296330794383
1.1059246889444205
1.0175888261860004
1.0018714934035367
1.0001743921619701
1.0000159647192053
1.0000014545538187
1.0000001320673344
1.0000000119534893
1.0000000010787458
1.0000000000970837
1.0000000000087148
1.00000000000078
1.0000000000000693
1.0000000000000058
1.0000000000000007
2.1969107454985837
1.9593637533330686
1.5002467517900564
1.1232902616278342
0.8601123420047136
0.677125689910078
0.5494807186218023
0.4607199456613016
0.3994503847916919
0.35726471534040277
0.3279148383697774
0.3069659392478251
0.291421151822703
0.27934253976352924
0.26953606986414486
0.2613175279266506
0.2543479498498969
0.24852063178580303
0.24386425344705237
0.24046929969679565
0.23845417957562692
0.2379412620146281
0.23903568716765455
0.24181308552622893
0.24631615569763263
0.2525569617040609
0.2605197928096159
0.2701602810969891
0.2813994900686793
0.2941149852104372
0.3081332082434018
0.32322815305168096
0.3391292982288693
0.35553805340498423
0.3721551512645679
0.3887064461949634
0.40495569835626805
0.42071270046372955
0.43584059282659493
0.45025887920415253
0.46393807815180693
0.4768955096172861
0.48919180644334814
0.5009262478618752
0.5122382873935938
0.5233136000790007
0.5343952629211265
0.5458026179681967
0.5579654614276334
0.5714579301484315
0.587027180490659
0.6056314785002712
0.6284781015459171
0.6570511733520723
0.693121369575084
0.7387261880644082
0.7961088318606688
0.8676061005822687
0.9554819555254063
1.0617134782499005
1.1877480021338631
1.3342611349194702
1.500951898101998
1.686411112592504
1.8880902399586097
2.1023868623721773
2.324848607867291
2.5504726476444173
2.7740668704627964
2.9905994181950915
3.1955018565864326
3.384935509242398
3.555947892269661
3.7064622016345297
3.8350922653724817
3.9407512245577583
4.021989870114588
4.075962550048143
4.096871047960796
4.073733023718759
3.987579270604278
3.809252832214028
3.501927712838989
3.0374356425630613
2.436042077707985
1.8100265756912928
1.3303966636948856
1.086504206962585
1.013184778321259
1.0013362621955495
1.000122302535253
1.0000110511669795
1.0000009948576511
1.0000000893068848
1.0000000079961282
1.0000000007141916
1.0000000000636429
1.0000000000056584
1.0000000000005016
1.0000000000000442
1.000000000000007
2.0590130555405346
1.8210729779559447
1.3699836374912187
1.0121185986284582
0.7691323681341972
0.6036404626815621
0.49080099916896575
0.41455410982946983
0.3633342423457051
0.32864541901408684
0.30455019486403523
0.28710637781492515
0.2737931447530134
0.2630552769489033
0.2539853357435976
0.24610761742263712
0.23923016629236182
0.2333457389216069
0.228557047584303
0.22500653865546155
0.22283966458483684
0.2221952003247375
0.2231902299017011
0.22591105566897635
0.23041197745279332
0.23671882833733288
0.244831959396834
0.25472422713852394
0.26633265630913544
0.2795460014327802
0.2941932474322686
0.3100387335088678
0.3267875603006327
0.3441130147764364
0.36169400427230053
0.37923334375687323
0.3964665206718354
0.4131745076824819
0.429195026629039
0.4444238527871976
0.45881081615293795
0.47235516916697623
0.4850966718930104
0.4971089227821625
0.5084977354596125
0.5194024742029273
0.5300013608452343
0.5405285595499691
0.5512997496872974
0.5627364138519404
0.5753970607234273
0.5900175794130028
0.607553731709734
0.629221875459791
0.6565309567373192
0.6912957390717795
0.7356188209641322
0.791828343811041
0.8623609084244519
0.9495861716802843
1.0555806192193946
1.1818709926802522
1.329179321951272
1.4972080265080014
1.684503022342341
1.8884246883361422
2.105240897324078
2.3303414090734567