# vtk DataFile Version 3.0 
shock_diffraction_time_series_158_.vtk
ASCII
DATASET UNSTRUCTURED_GRID
POINTS         10201 double
0.0 0.0 0.0
0.01 0.0 0.0
0.02 0.0 0.0
0.03 0.0 0.0
0.04 0.0 0.0
0.05 0.0 0.0
0.06 0.0 0.0
0.07 0.0 0.0
0.08 0.0 0.0
0.09 0.0 0.0
0.1 0.0 0.0
0.11 0.0 0.0
0.12 0.0 0.0
0.13 0.0 0.0
0.14 0.0 0.0
0.15 0.0 0.0
0.16 0.0 0.0
0.17 0.0 0.0
0.18 0.0 0.0
0.19 0.0 0.0
0.2 0.0 0.0
0.21 0.0 0.0
0.22 0.0 0.0
0.23 0.0 0.0
0.24 0.0 0.0
0.25 0.0 0.0
0.26 0.0 0.0
0.27 0.0 0.0
0.28 0.0 0.0
0.29 0.0 0.0
0.3 0.0 0.0
0.31 0.0 0.0
0.32 0.0 0.0
0.33 0.0 0.0
0.34 0.0 0.0
0.35000000000000003 0.0 0.0
0.36 0.0 0.0
0.37 0.0 0.0
0.38 0.0 0.0
0.39 0.0 0.0
0.4 0.0 0.0
0.41000000000000003 0.0 0.0
0.42 0.0 0.0
0.43 0.0 0.0
0.44 0.0 0.0
0.45 0.0 0.0
0.46 0.0 0.0
0.47000000000000003 0.0 0.0
0.48 0.0 0.0
0.49 0.0 0.0
0.5 0.0 0.0
0.51 0.0 0.0
0.52 0.0 0.0
0.53 0.0 0.0
0.54 0.0 0.0
0.55 0.0 0.0
0.56 0.0 0.0
0.5700000000000001 0.0 0.0
0.58 0.0 0.0
0.59 0.0 0.0
0.6 0.0 0.0
0.61 0.0 0.0
0.62 0.0 0.0
0.63 0.0 0.0
0.64 0.0 0.0
0.65 0.0 0.0
0.66 0.0 0.0
0.67 0.0 0.0
0.68 0.0 0.0
0.6900000000000001 0.0 0.0
0.7000000000000001 0.0 0.0
0.71 0.0 0.0
0.72 0.0 0.0
0.73 0.0 0.0
0.74 0.0 0.0
0.75 0.0 0.0
0.76 0.0 0.0
0.77 0.0 0.0
0.78 0.0 0.0
0.79 0.0 0.0
0.8 0.0 0.0
0.81 0.0 0.0
0.8200000000000001 0.0 0.0
0.8300000000000001 0.0 0.0
0.84 0.0 0.0
0.85 0.0 0.0
0.86 0.0 0.0
0.87 0.0 0.0
0.88 0.0 0.0
0.89 0.0 0.0
0.9 0.0 0.0
0.91 0.0 0.0
0.92 0.0 0.0
0.93 0.0 0.0
0.9400000000000001 0.0 0.0
0.9500000000000001 0.0 0.0
0.96 0.0 0.0
0.97 0.0 0.0
0.98 0.0 0.0
0.99 0.0 0.0
1.0 0.0 0.0
0.0 0.01 0.0
0.01 0.01 0.0
0.02 0.01 0.0
0.03 0.01 0.0
0.04 0.01 0.0
0.05 0.01 0.0
0.06 0.01 0.0
0.07 0.01 0.0
0.08 0.01 0.0
0.09 0.01 0.0
0.1 0.01 0.0
0.11 0.01 0.0
0.12 0.01 0.0
0.13 0.01 0.0
0.14 0.01 0.0
0.15 0.01 0.0
0.16 0.01 0.0
0.17 0.01 0.0
0.18 0.01 0.0
0.19 0.01 0.0
0.2 0.01 0.0
0.21 0.01 0.0
0.22 0.01 0.0
0.23 0.01 0.0
0.24 0.01 0.0
0.25 0.01 0.0
0.26 0.01 0.0
0.27 0.01 0.0
0.28 0.01 0.0
0.29 0.01 0.0
0.3 0.01 0.0
0.31 0.01 0.0
0.32 0.01 0.0
0.33 0.01 0.0
0.34 0.01 0.0
0.35000000000000003 0.01 0.0
0.36 0.01 0.0
0.37 0.01 0.0
0.38 0.01 0.0
0.39 0.01 0.0
0.4 0.01 0.0
0.41000000000000003 0.01 0.0
0.42 0.01 0.0
0.43 0.01 0.0
0.44 0.01 0.0
0.45 0.01 0.0
0.46 0.01 0.0
0.47000000000000003 0.01 0.0
0.48 0.01 0.0
0.49 0.01 0.0
0.5 0.01 0.0
0.51 0.01 0.0
0.52 0.01 0.0
0.53 0.01 0.0
0.54 0.01 0.0
0.55 0.01 0.0
0.56 0.01 0.0
0.5700000000000001 0.01 0.0
0.58 0.01 0.0
0.59 0.01 0.0
0.6 0.01 0.0
0.61 0.01 0.0
0.62 0.01 0.0
0.63 0.01 0.0
0.64 0.01 0.0
0.65 0.01 0.0
0.66 0.01 0.0
0.67 0.01 0.0
0.68 0.01 0.0
0.6900000000000001 0.01 0.0
0.7000000000000001 0.01 0.0
0.71 0.01 0.0
0.72 0.01 0.0
0.73 0.01 0.0
0.74 0.01 0.0
0.75 0.01 0.0
0.76 0.01 0.0
0.77 0.01 0.0
0.78 0.01 0.0
0.79 0.01 0.0
0.8 0.01 0.0
0.81 0.01 0.0
0.8200000000000001 0.01 0.0
0.8300000000000001 0.01 0.0
0.84 0.01 0.0
0.85 0.01 0.0
0.86 0.01 0.0
0.87 0.01 0.0
0.88 0.01 0.0
0.89 0.01 0.0
0.9 0.01 0.0
0.91 0.01 0.0
0.92 0.01 0.0
0.93 0.01 0.0
0.9400000000000001 0.01 0.0
0.9500000000000001 0.01 0.0
0.96 0.01 0.0
0.97 0.01 0.0
0.98 0.01 0.0
0.99 0.01 0.0
1.0 0.01 0.0
0.0 0.02 0.0
0.01 0.02 0.0
0.02 0.02 0.0
0.03 0.02 0.0
0.04 0.02 0.0
0.05 0.02 0.0
0.06 0.02 0.0
0.07 0.02 0.0
0.08 0.02 0.0
0.09 0.02 0.0
0.1 0.02 0.0
0.11 0.02 0.0
0.12 0.02 0.0
0.13 0.02 0.0
0.14 0.02 0.0
0.15 0.02 0.0
0.16 0.02 0.0
0.17 0.02 0.0
0.18 0.02 0.0
0.19 0.02 0.0
0.2 0.02 0.0
0.21 0.02 0.0
0.22 0.02 0.0
0.23 0.02 0.0
0.24 0.02 0.0
0.25 0.02 0.0
0.26 0.02 0.0
0.27 0.02 0.0
0.28 0.02 0.0
0.29 0.02 0.0
0.3 0.02 0.0
0.31 0.02 0.0
0.32 0.02 0.0
0.33 0.02 0.0
0.34 0.02 0.0
0.35000000000000003 0.02 0.0
0.36 0.02 0.0
0.37 0.02 0.0
0.38 0.02 0.0
0.39 0.02 0.0
0.4 0.02 0.0
0.41000000000000003 0.02 0.0
0.42 0.02 0.0
0.43 0.02 0.0
0.44 0.02 0.0
0.45 0.02 0.0
0.46 0.02 0.0
0.47000000000000003 0.02 0.0
0.48 0.02 0.0
0.49 0.02 0.0
0.5 0.02 0.0
0.51 0.02 0.0
0.52 0.02 0.0
0.53 0.02 0.0
0.54 0.02 0.0
0.55 0.02 0.0
0.56 0.02 0.0
0.5700000000000001 0.02 0.0
0.58 0.02 0.0
0.59 0.02 0.0
0.6 0.02 0.0
0.61 0.02 0.0
0.62 0.02 0.0
0.63 0.02 0.0
0.64 0.02 0.0
0.65 0.02 0.0
0.66 0.02 0.0
0.67 0.02 0.0
0.68 0.02 0.0
0.6900000000000001 0.02 0.0
0.7000000000000001 0.02 0.0
0.71 0.02 0.0
0.72 0.02 0.0
0.73 0.02 0.0
0.74 0.02 0.0
0.75 0.02 0.0
0.76 0.02 0.0
0.77 0.02 0.0
0.78 0.02 0.0
0.79 0.02 0.0
0.8 0.02 0.0
0.81 0.02 0.0
0.8200000000000001 0.02 0.0
0.8300000000000001 0.02 0.0
0.84 0.02 0.0
0.85 0.02 0.0
0.86 0.02 0.0
0.87 0.02 0.0
0.88 0.02 0.0
0.89 0.02 0.0
0.9 0.02 0.0
0.91 0.02 0.0
0.92 0.02 0.0
0.93 0.02 0.0
0.9400000000000001 0.02 0.0
0.9500000000000001 0.02 0.0
0.96 0.02 0.0
0.97 0.02 0.0
0.98 0.02 0.0
0.99 0.02 0.0
1.0 0.02 0.0
0.0 0.03 0.0
0.01 0.03 0.0
0.02 0.03 0.0
0.03 0.03 0.0
0.04 0.03 0.0
0.05 0.03 0.0
0.06 0.03 0.0
0.07 0.03 0.0
0.08 0.03 0.0
0.09 0.03 0.0
0.1 0.03 0.0
0.11 0.03 0.0
0.12 0.03 0.0
0.13 0.03 0.0
0.14 0.03 0.0
0.15 0.03 0.0
0.16 0.03 0.0
0.17 0.03 0.0
0.18 0.03 0.0
0.19 0.03 0.0
0.2 0.03 0.0
0.21 0.03 0.0
0.22 0.03 0.0
0.23 0.03 0.0
0.24 0.03 0.0
0.25 0.03 0.0
0.26 0.03 0.0
0.27 0.03 0.0
0.28 0.03 0.0
0.29 0.03 0.0
0.3 0.03 0.0
0.31 0.03 0.0
0.32 0.03 0.0
0.33 0.03 0.0
0.34 0.03 0.0
0.35000000000000003 0.03 0.0
0.36 0.03 0.0
0.37 0.03 0.0
0.38 0.03 0.0
0.39 0.03 0.0
0.4 0.03 0.0
0.41000000000000003 0.03 0.0
0.42 0.03 0.0
0.43 0.03 0.0
0.44 0.03 0.0
0.45 0.03 0.0
0.46 0.03 0.0
0.47000000000000003 0.03 0.0
0.48 0.03 0.0
0.49 0.03 0.0
0.5 0.03 0.0
0.51 0.03 0.0
0.52 0.03 0.0
0.53 0.03 0.0
0.54 0.03 0.0
0.55 0.03 0.0
0.56 0.03 0.0
0.5700000000000001 0.03 0.0
0.58 0.03 0.0
0.59 0.03 0.0
0.6 0.03 0.0
0.61 0.03 0.0
0.62 0.03 0.0
0.63 0.03 0.0
0.64 0.03 0.0
0.65 0.03 0.0
0.66 0.03 0.0
0.67 0.03 0.0
0.68 0.03 0.0
0.6900000000000001 0.03 0.0
0.7000000000000001 0.03 0.0
0.71 0.03 0.0
0.72 0.03 0.0
0.73 0.03 0.0
0.74 0.03 0.0
0.75 0.03 0.0
0.76 0.03 0.0
0.77 0.03 0.0
0.78 0.03 0.0
0.79 0.03 0.0
0.8 0.03 0.0
0.81 0.03 0.0
0.8200000000000001 0.03 0.0
0.8300000000000001 0.03 0.0
0.84 0.03 0.0
0.85 0.03 0.0
0.86 0.03 0.0
0.87 0.03 0.0
0.88 0.03 0.0
0.89 0.03 0.0
0.9 0.03 0.0
0.91 0.03 0.0
0.92 0.03 0.0
0.93 0.03 0.0
0.9400000000000001 0.03 0.0
0.9500000000000001 0.03 0.0
0.96 0.03 0.0
0.97 0.03 0.0
0.98 0.03 0.0
0.99 0.03 0.0
1.0 0.03 0.0
0.0 0.04 0.0
0.01 0.04 0.0
0.02 0.04 0.0
0.03 0.04 0.0
0.04 0.04 0.0
0.05 0.04 0.0
0.06 0.04 0.0
0.07 0.04 0.0
0.08 0.04 0.0
0.09 0.04 0.0
0.1 0.04 0.0
0.11 0.04 0.0
0.12 0.04 0.0
0.13 0.04 0.0
0.14 0.04 0.0
0.15 0.04 0.0
0.16 0.04 0.0
0.17 0.04 0.0
0.18 0.04 0.0
0.19 0.04 0.0
0.2 0.04 0.0
0.21 0.04 0.0
0.22 0.04 0.0
0.23 0.04 0.0
0.24 0.04 0.0
0.25 0.04 0.0
0.26 0.04 0.0
0.27 0.04 0.0
0.28 0.04 0.0
0.29 0.04 0.0
0.3 0.04 0.0
0.31 0.04 0.0
0.32 0.04 0.0
0.33 0.04 0.0
0.34 0.04 0.0
0.35000000000000003 0.04 0.0
0.36 0.04 0.0
0.37 0.04 0.0
0.38 0.04 0.0
0.39 0.04 0.0
0.4 0.04 0.0
0.41000000000000003 0.04 0.0
0.42 0.04 0.0
0.43 0.04 0.0
0.44 0.04 0.0
0.45 0.04 0.0
0.46 0.04 0.0
0.47000000000000003 0.04 0.0
0.48 0.04 0.0
0.49 0.04 0.0
0.5 0.04 0.0
0.51 0.04 0.0
0.52 0.04 0.0
0.53 0.04 0.0
0.54 0.04 0.0
0.55 0.04 0.0
0.56 0.04 0.0
0.5700000000000001 0.04 0.0
0.58 0.04 0.0
0.59 0.04 0.0
0.6 0.04 0.0
0.61 0.04 0.0
0.62 0.04 0.0
0.63 0.04 0.0
0.64 0.04 0.0
0.65 0.04 0.0
0.66 0.04 0.0
0.67 0.04 0.0
0.68 0.04 0.0
0.6900000000000001 0.04 0.0
0.7000000000000001 0.04 0.0
0.71 0.04 0.0
0.72 0.04 0.0
0.73 0.04 0.0
0.74 0.04 0.0
0.75 0.04 0.0
0.76 0.04 0.0
0.77 0.04 0.0
0.78 0.04 0.0
0.79 0.04 0.0
0.8 0.04 0.0
0.81 0.04 0.0
0.8200000000000001 0.04 0.0
0.8300000000000001 0.04 0.0
0.84 0.04 0.0
0.85 0.04 0.0
0.86 0.04 0.0
0.87 0.04 0.0
0.88 0.04 0.0
0.89 0.04 0.0
0.9 0.04 0.0
0.91 0.04 0.0
0.92 0.04 0.0
0.93 0.04 0.0
0.9400000000000001 0.04 0.0
0.9500000000000001 0.04 0.0
0.96 0.04 0.0
0.97 0.04 0.0
0.98 0.04 0.0
0.99 0.04 0.0
1.0 0.04 0.0
0.0 0.05 0.0
0.01 0.05 0.0
0.02 0.05 0.0
0.03 0.05 0.0
0.04 0.05 0.0
0.05 0.05 0.0
0.06 0.05 0.0
0.07 0.05 0.0
0.08 0.05 0.0
0.09 0.05 0.0
0.1 0.05 0.0
0.11 0.05 0.0
0.12 0.05 0.0
0.13 0.05 0.0
0.14 0.05 0.0
0.15 0.05 0.0
0.16 0.05 0.0
0.17 0.05 0.0
0.18 0.05 0.0
0.19 0.05 0.0
0.2 0.05 0.0
0.21 0.05 0.0
0.22 0.05 0.0
0.23 0.05 0.0
0.24 0.05 0.0
0.25 0.05 0.0
0.26 0.05 0.0
0.27 0.05 0.0
0.28 0.05 0.0
0.29 0.05 0.0
0.3 0.05 0.0
0.31 0.05 0.0
0.32 0.05 0.0
0.33 0.05 0.0
0.34 0.05 0.0
0.35000000000000003 0.05 0.0
0.36 0.05 0.0
0.37 0.05 0.0
0.38 0.05 0.0
0.39 0.05 0.0
0.4 0.05 0.0
0.41000000000000003 0.05 0.0
0.42 0.05 0.0
0.43 0.05 0.0
0.44 0.05 0.0
0.45 0.05 0.0
0.46 0.05 0.0
0.47000000000000003 0.05 0.0
0.48 0.05 0.0
0.49 0.05 0.0
0.5 0.05 0.0
0.51 0.05 0.0
0.52 0.05 0.0
0.53 0.05 0.0
0.54 0.05 0.0
0.55 0.05 0.0
0.56 0.05 0.0
0.5700000000000001 0.05 0.0
0.58 0.05 0.0
0.59 0.05 0.0
0.6 0.05 0.0
0.61 0.05 0.0
0.62 0.05 0.0
0.63 0.05 0.0
0.64 0.05 0.0
0.65 0.05 0.0
0.66 0.05 0.0
0.67 0.05 0.0
0.68 0.05 0.0
0.6900000000000001 0.05 0.0
0.7000000000000001 0.05 0.0
0.71 0.05 0.0
0.72 0.05 0.0
0.73 0.05 0.0
0.74 0.05 0.0
0.75 0.05 0.0
0.76 0.05 0.0
0.77 0.05 0.0
0.78 0.05 0.0
0.79 0.05 0.0
0.8 0.05 0.0
0.81 0.05 0.0
0.8200000000000001 0.05 0.0
0.8300000000000001 0.05 0.0
0.84 0.05 0.0
0.85 0.05 0.0
0.86 0.05 0.0
0.87 0.05 0.0
0.88 0.05 0.0
0.89 0.05 0.0
0.9 0.05 0.0
0.91 0.05 0.0
0.92 0.05 0.0
0.93 0.05 0.0
0.9400000000000001 0.05 0.0
0.9500000000000001 0.05 0.0
0.96 0.05 0.0
0.97 0.05 0.0
0.98 0.05 0.0
0.99 0.05 0.0
1.0 0.05 0.0
0.0 0.06 0.0
0.01 0.06 0.0
0.02 0.06 0.0
0.03 0.06 0.0
0.04 0.06 0.0
0.05 0.06 0.0
0.06 0.06 0.0
0.07 0.06 0.0
0.08 0.06 0.0
0.09 0.06 0.0
0.1 0.06 0.0
0.11 0.06 0.0
0.12 0.06 0.0
0.13 0.06 0.0
0.14 0.06 0.0
0.15 0.06 0.0
0.16 0.06 0.0
0.17 0.06 0.0
0.18 0.06 0.0
0.19 0.06 0.0
0.2 0.06 0.0
0.21 0.06 0.0
0.22 0.06 0.0
0.23 0.06 0.0
0.24 0.06 0.0
0.25 0.06 0.0
0.26 0.06 0.0
0.27 0.06 0.0
0.28 0.06 0.0
0.29 0.06 0.0
0.3 0.06 0.0
0.31 0.06 0.0
0.32 0.06 0.0
0.33 0.06 0.0
0.34 0.06 0.0
0.35000000000000003 0.06 0.0
0.36 0.06 0.0
0.37 0.06 0.0
0.38 0.06 0.0
0.39 0.06 0.0
0.4 0.06 0.0
0.41000000000000003 0.06 0.0
0.42 0.06 0.0
0.43 0.06 0.0
0.44 0.06 0.0
0.45 0.06 0.0
0.46 0.06 0.0
[...]
POINT_DATA  10201
FIELD  FlowField  5
Density    1 10201  double
3.794778188912546
3.7928406616530763
3.781624576035594
3.7531814578667158
3.705846326394763
3.642064668986331
3.5646332803280267
3.4755558893727714
3.3760578966037267
3.2669362836131866
3.1489804011913454
3.0234512635457724
2.8926319922497137
2.760263881993723
2.631532899632793
2.5123267849332804
2.4078933591701794
2.3215530964256095
2.254189215406246
2.204680812850971
2.170823471993895
2.1501694727826686
2.1405214731980564
2.1401102053612697
2.147590486137054
2.1619657362564593
2.1824998475624
2.20863952057513
2.2399529587875104
2.2760843666470882
2.31672189903747
2.361576494819387
2.410369216650981
2.4628250287529982
2.5186712275463643
2.577638996092862
2.6394669437885607
2.7039057162554334
2.7707228846933374
2.8397074915942793
2.91067403358966
2.9834658871237854
3.0579583114418107
3.1340610518890104
3.2117201613377997
3.290918884660362
3.3716774546860098
3.454051630106551
3.538129782925223
3.6240283086963707
3.711885045784667
3.801849556959466
3.894069422728467
3.9886789952698356
4.08578077568513
4.185410952849821
4.287514759800917
4.391933396240373
4.498393097782505
4.606505009779912
4.715778758041731
4.825648350147439
4.935499769357907
5.044719397523979
5.152751275041979
5.259131180741763
5.3635106830462025
5.465671456811915
5.565524799089561
5.663098296582888
5.758513625813061
5.851960122668438
5.943668262211354
6.033886010726444
6.1228596940860545
6.210819952724974
6.297972661500917
6.384494386151954
6.470532360996902
6.556213788762813
6.641711659601435
6.727792967317937
6.820709439787974
6.9739567589522355
7.5181277624274445
9.27771895149841
12.529413968153687
16.216218751493045
19.20658440043296
21.220435301495563
22.486850867704142
23.31031311184224
23.904876303344558
24.386785975112662
24.80395784927896
25.161072491299887
25.434172725335515
25.579115696759608
25.549281819979832
25.363221271767607
25.24086948495531
3.786895532991873
3.784410289342018
3.7717443336828618
3.7412555274262744
3.691494949262243
3.6251237761321384
3.5451630223310575
3.4538171362718173
3.352462509447762
3.2420057482953775
3.1233254632043526
2.997748890053116
2.867567226480845
2.7364234195492303
2.6092780136698654
2.4917106180652935
2.3886806479231386
2.303339235567776
2.236550089511908
2.1872778009908322
2.153437042894388
2.1326823348473374
2.1228839503492556
2.1223082814623555
2.129622933255466
2.1438295335138045
2.164181283137225
2.1901088064578103
2.2211610718798607
2.2569615145950874
2.297177169798335
2.341497786789819
2.389623861205454
2.4412619704130156
2.496124143330583
2.5539296550209114
2.614408257207673
2.677303947364504
2.7423787193452123
2.8094162159511953
2.878225875758501
2.9486477653510215
3.0205565057115615
3.093862319025151
3.168510777421975
3.2444828877475596
3.321794638523653
3.4004960412467136
3.4806693396619197
3.5624257775638295
3.645900684234261
3.731245937705751
3.8186193439219465
3.908178431576821
4.000061705639721
4.094354326446836
4.19106642463446
4.290118107344824
4.391324687869009
4.494390649653386
4.598915800037996
4.704411590325129
4.810321256332955
4.916068147044045
5.021110513852963
5.124973737209108
5.22727978020295
5.327768300354203
5.426303395449774
5.522866411390153
5.6175378602987855
5.710472926034076
5.8018751409446185
5.8919718907494
5.980994013764008
6.069160451679245
6.156667985722226
6.2436856585030505
6.330353985386905
6.416794994447649
6.503190371919357
6.590430943921676
6.685740921024961
6.848382099318329
7.420931563891073
9.191788555613964
12.349423723383284
15.834047728741261
18.622317468474325
20.51737303820967
21.750893005924624
22.595812831641055
23.23890246836647
23.780893700907257
24.262058805216384
24.683416376270454
25.019954896231628
25.22886717827233
25.266191583374578
25.147202129938933
25.057192889504613
3.7661287788576807
3.762366222556879
3.746361843784427
3.711200811058544
3.6558543923878863
3.5833933282270563
3.4973215598784178
3.4003507908910313
3.294305444752723
3.180450963332721
3.0599465211121464
2.934300898355748
2.805810056714915
2.6778510939915563
2.554817625944425
2.4415295209412995
2.342230605039457
2.259636030806492
2.1945354618854513
2.1460845260013564
2.112484966800351
2.0916469528695227
2.0816140294306775
2.0807446714441347
2.0877375656408623
2.1015848006987072
2.121504308411302
2.146875534057924
2.177187030435796
2.211997724332837
2.250910733574867
2.293557458924054
2.3395893551140814
2.3886749867175334
2.440500110603061
2.4947675815347665
2.551197951776496
2.6095334098303105
2.6695415858559617
2.7310172943744346
2.7937841156899483
2.8576959783070355
2.9226372612913303
2.988519992817406
3.0552801448468863
3.122877292695193
3.191301811060125
3.2605856209398163
3.330799587674141
3.40204591443299
3.474457202806259
3.54819414206126
3.6234433334890936
3.700421729862744
3.7793564628092238
3.860452701139338
3.9438791557004995
4.029748441054523
4.11809371909377
4.208848992751805
4.301837333492795
4.396762102816467
4.493212322677098
4.590707943696785
4.688742860026764
4.786813760258791
4.88446180705804
4.981311022775696
5.077094633533601
5.171665495657512
5.26499054701733
5.357132651526119
5.448225205312065
5.53844503427697
5.627987820737811
5.71704842437002
5.80580681251244
5.894419386313147
5.983016207314072
6.07171452327111
6.160743649009697
6.251490380696838
6.355114965311916
6.553979795174665
7.231627320670242
9.047413499786163
11.936266644930683
14.898773700806899
17.22586540666494
18.886829111788373
20.083101353643748
21.00201139192992
21.769088725729837
22.45397943303506
23.082486361079596
23.648365235347164
24.12316153680528
24.466393971132014
24.64270071634883
24.66371209785981
24.64168761323667
3.7358673898996524
3.7305079190879216
3.7104093495808703
3.66961286115277
3.6075120263689806
3.5275611271371985
3.4337970560014646
3.3295953896597954
3.2174535580917754
3.0992095208693717
2.9764433973133864
2.8508934230685674
2.724822080510352
2.6012332003814516
2.4837939971707863
2.3763744626484504
2.282315355697587
2.2037522889159744
2.1413318991796375
2.09440842174793
2.0615283456908653
2.040928954197952
2.0308852152432646
2.0298809964827518
2.0366545320677614
2.0501772051442755
2.069607234782091
2.0942410500363593
2.1234725992465355
2.1567639065569533
2.1936267512006165
2.2336139027253212
2.2763157120863298
2.3213588079581076
2.3684061936299217
2.417157401462328
2.4673481099989183
2.518748520210009
2.5711592594499035
2.6244103315233818
2.6783622795542197
2.7329035403272233
2.7879465173139057
2.84342428627962
2.8992869740248106
2.9554981032967986
3.012034193914835
3.068890562942915
3.1260966343908683
3.183737596730523
3.2419521765280956
3.30092086080038
3.36087641492598
3.4221157381602167
3.4849756713836815
3.5498082303540652
3.6169736344507344
3.686815573135406
3.759628807245959
3.8356248849553825
3.914898597082158
3.9973872854009054
4.082866069863468
4.170981431707029
4.261268166326937
4.353176235255065
4.446124705920201
4.539562077569203
4.633020620954647
4.726154626374495
4.81875676256315
4.910752492327729
5.002177674746116
5.093147268314084
5.183822836555159
5.274384251989319
5.365008133438023
5.455853509703974
5.547056114217388
5.63875112016898
5.73130766206971
5.827349678564126
5.947948679575916
6.227485156641978
7.102508005448136
8.97792342835475
11.459065829881574
13.750802521798509
15.56282993581582
17.002173415961536
18.1986771509676
19.233094029583693
20.161337965694322
21.02073598624035
21.823589170693076
22.555372455028042
23.181840947405846
23.665112394195695
23.982906038885336
24.146527222360355
24.193869830781352
3.6970237785289903
3.6898229779180216
3.6650654816756507
3.6179535778482723
3.548343709356985
3.460087397831552
3.3577925100311794
3.2455787838235866
3.1267330207485413
3.0037750015712605
2.878758406933584
2.753634130785332
2.6305678049279617
2.512113806927492
2.401148101139701
2.3005429884203408
2.212692805221972
2.139100442824416
2.080211304593009
2.035535941547528
2.003953284131641
1.9840399246515927
1.9743220294964259
1.9734215428042705
1.980115601766706
1.9933420097154522
2.0121792085109527
2.035819556762192
2.0635459981504334
2.0947159818517602
2.1287525870407706
2.1651408346358725
2.203426489420284
2.2432149948155
2.2841693349804837
2.3260079868339014
2.3685017376235997
2.4114670872532638
2.454759536260136
2.4982654070928456
2.541892385384667
2.5855679946225703
2.629241816727765
2.672884612469108
2.7164861253608024
2.760049214322506
2.80357503433922
2.8470486411594673
2.8904622874483366
2.9338820062117428
2.9774640128931504
3.021428532014532
3.066077172920837
3.1117966071005485
3.159029524676265
3.208267362468272
3.260045098446467
3.3149134599905925
3.3733996364807295
3.43596300266478
3.5029360106662555
3.574467745675323
3.6505176934302135
3.7308539745947034
3.815039645687671
3.9024584530953725
3.992375731609182
4.08401899842465
4.176663242950982
4.269704466908603
4.362707710446646
4.455422655301938
4.547768862099231
4.639800067541134
4.73165982370409
4.8235390246587
4.9156416390291495
5.008161027247615
5.101270053083958
5.1951617714908584
5.290499987898148
5.392519300789936
5.543368376547546
5.963434962392841
7.094919067328105
8.9823045837606
10.991483663260794
12.640232546662402
13.982154546265058
15.201713254149396
16.375806757469423
17.507726053151263
18.591168375724358
19.62615214371102
20.60596690511119
21.504833582040515
22.282175743928633
22.903713094198302
23.360241760198235
23.660372293119934
23.772764550924126
3.650166061948439
3.640948298045549
3.6111195165200174
3.5571874260599827
3.479521916678059
3.3824215344840747
3.2711240233857466
3.1505511263191224
3.0248317216039684
2.897206758014272
2.770206794819496
2.6459477934490327
2.5264169757585493
2.4136444167586477
2.309686584773514
2.2164439301139507
2.135409160518882
2.0674669094142826
2.012825213306217
1.9710847639276314
1.9413948104329863
1.9226312236516625
1.9135506342751523
1.91290045368778
1.919484237307358
1.9321925813673944
1.9500129822276973
1.9720301917709981
1.997424341932765
2.0254698220949208
2.05553488943949
2.087080719093203
2.1196584553101316
2.15290347067271
2.1865269648706636
2.220305822252345
2.2540723342570512
2.2877059494662726
2.3211290802484488
2.3542992268896623
2.3871939832889892
2.419798071648821
2.4521052031959316
2.484124066712429
2.5158750584712175
2.547386081550041
2.5786829866382237
2.609778285969096
2.6406955925300375
2.6715423593025007
2.7025296550093625
2.73395563100823
2.7662066986245097
2.799736805101955
2.8350603531768948
2.87275734626988
2.913463315973236
2.9578452468399856
3.006560845215234
3.060200530016147
3.119234633871304
3.1839713535618124
3.2545154828000027
3.330722089237743
3.4121677081256085
3.4981672136835344
3.5878312515870716
3.6801575088720737
3.7741416230341303
3.8688876078834435
3.9636955588527476
4.058109116083865
4.151916859035556
4.245115444203982
4.337851126083681
4.430357417828245
4.522901745702724
4.615747426844798
4.709137219617759
4.803360364930112
4.899568434761027
5.007892753007001
5.209952245216455
5.833064827560001
7.221348700446757
9.041445606061126
10.613178064480968
11.76689642265385
12.73039108718552
13.709514745307779
14.775724831585249
15.91558709457709
17.08976386341612
18.260974649713305
19.393382636872573
20.44292231766158
21.360837408130124
22.11543215310041
22.706226333126168
23.132982756786774
23.303403073631035
3.5952668327790636
3.5839418044567686
3.5488223425520795
3.4877859917450245
3.4017528023009644
3.2955319641897862
3.175069519668783
3.0461472850743734
2.9137530543442236
2.7818322085069482
2.653345644059601
2.5304955394264974
2.4149992483350617
2.308298296363934
2.2116317085866917
2.1259992514224706
2.0520871646752905
1.9902183644484652
1.940347941556969
1.9020928942500215
1.874779972985648
1.8575047083879617
1.849199329215238
1.8487039858170204
1.8548326385137601
1.8664270868683035
1.8823974341846246
1.901750576034655
1.9236089096322284
1.9472206607076519
1.9719625725363976
1.9973358829032262
2.0229567866654645
2.0485428736140863
2.0738972183193543
2.0988920248833134
2.123453879247787
2.147551094488853
2.1711846241835655
2.1943840774550134
2.217201479040688
2.239689948831208
2.261894908727997
2.283865079922192
2.3056491889941406
2.3272888346266467
2.348822850431756
2.370312625082862
2.391908303172288
2.4138707810659477
2.4365303201624227
2.460264797288948
2.485489522264486
2.5126575550639
2.542275087159479
2.5749050436068015
2.6111528900032845
2.651645420855144
2.6970205033709123
2.747886129537558
2.8047651526939057
2.8680476879919494
2.9379182937522694
3.014290642442297
3.0967673673389724
3.184635201161196
3.2769043011558048
3.372392557104849
3.469846989681101
3.568084577147174
3.66612430380048
3.7632791679881663
3.8591877328754975
3.953785316679756
4.0472331978942995
4.139832064568602
4.231942485137579
4.323925843651078
4.416116305283178
4.508914070575315
4.604126745341756
4.720314514721451
5.00509194976585
5.8823987709314896
7.48379382847139
9.174014618603854
10.397931866434327
11.216442433365462
11.89564205776015
12.624326003623569
13.489956821397797
14.507412423252452
15.645725693561527
16.851859378180627
18.06337368833675
19.211230665368006
20.231052088032094
21.08746226748735
21.782079906423284
22.30184933781765
22.512596586338283
3.5314406920818433
3.518028879829362
3.4776612620908605
3.4095612896061045
3.315208742359141
3.1999724116213475
3.070578676653825
2.933718362517792
2.7952283507393156
2.659698301846503
2.5304288987836148
2.4096069752994995
2.2985954634841
2.198210841174899
2.108909802467577
2.0308895523588886
1.9641441196865093
1.9085059451408395
1.8636716689735822
1.8292008867612712
1.804492518926832
1.788762620720881
1.7810485534871905
1.7802480899112454
1.78518398860231
1.7946767068826366
1.8076102426305023
1.8229823647952852
1.8399361542508292
1.857773520568934
1.8759536885710486
1.8940810492886906
1.9118867155732389
1.9292073006929609
1.9459631143901432
1.9621378665399083
1.9777627955086317
1.9929032890900866
2.007648153225192
2.022103855521715
2.036385259878181
2.0505903568724033
2.0647950817396663
2.0790750723220084
2.093503212692875
2.1081511207970105
2.1231614212921746
2.1388198944275034
2.155538462488054
2.1737370373254037
2.1937872853377596
2.2160353162388176
2.2408097286134443
2.268443482671635
2.2992877050017437
2.333748633838046
2.3722951824508707
2.4154261056093236
2.4636682476258227
2.517556662367399
2.577576304327307
2.6441048145666852
2.7173483092413595
2.797273846288477
2.8835516146515663
2.975522711281598
3.072206122521441
3.172352571407717
3.274550375316107
3.377379067044026
3.4795841472893567
3.58022699331906
3.678766827991465
3.7750574944606705
3.8692727537719596
3.9617941428918875
4.053097846725506
4.1436657448058565
4.233937073913754
4.324411625102108
4.417639369082992
4.546297860193198
4.958294852066996
6.124832959106154
7.875611402081534
9.398274819553041
10.357609500184001
10.95303417030771
11.42747530841763
11.93341386839868
12.557491235695133
13.339655684563661
14.278503880512641
15.336664671469736
16.4480425551239
17.528381706737644
18.500091809131995
19.324716600479153
20.005066605690118
20.518122281311783
20.724909377249062
3.45659440537759
3.4412717122950816
3.3960759932706415
3.3214450745882056
3.219387906692656
3.095836538261694
2.9583243049775483
2.8144592574664182
2.670888589066506
2.532758006556826
2.403589437194115
2.285449672332306
2.1792891089839355
2.085304736227881
2.003240879430649
1.9326044024680824
1.872808486729153
1.8232601155330415
1.7833920179450282
1.75263855591668
1.7303726256293335
1.7158394410617261
1.7081238321958592
1.7061684058612616
1.7088349823924427
1.714986443206395
1.723565020691366
1.7336508696589947
1.7444947023862707
1.7555259863901693
1.7663427413644686
1.7766904453738102
1.7864364896060128
1.7955448982622637
1.8040525218140566
1.812047176310802
1.8196535826945393
1.8270226100239042
1.8343181669748796
1.8417020054361832
1.8492948383874206
1.8571670911663736
1.8653842563466667
1.8740700892780378
1.8834828096447052
1.894036001663385
1.9062386905728546
1.92065103889597
1.9378004385162246
1.958048519490898
1.981579559528169
2.008506891409465
2.03895493063066
2.073061380892655
2.1109763513755238
2.1529072857393072
2.199137026770042
2.2499987345621904
2.305858000824779
2.3670897920759644
2.43404712445371
2.507022074529658
2.5861941751446715
2.6715683689374883
2.7629121826193437
2.8597051141082512
2.96110914716258
3.0659677350687877
3.172858025215519
3.2802232738853494
3.3865758812016127
3.4907141587064325
3.5918795595766877
3.6898068513218845
3.784663906212722
3.8769180135272743
3.967182271662037
4.056085654803512
4.144192547088171
4.232085512624797
4.32307883314004
4.474670060679571
5.073167861458027
6.545461556463996
8.367157285588824
9.695448000382694
10.443267468061869
10.879197879148805
11.208356699153082
11.542055587624448
11.939683854806765
12.431107798600763
13.021330825632006
13.685608821918269
14.36922433784352
15.006198728582264
15.556204800898005
16.026735452964527
16.441011254535457
16.76519902510753
16.894458621224658
3.3669693410897095
3.3501451794712587
3.3011160488261133
3.2212460832226
3.112971436255035
2.9827032504739637
2.8387129825055135
2.689462869664591
2.542339391520506
2.40294186135546
2.2748982688430788
2.1600778386166986
2.0590057381629743
1.9713142214249963
1.8961371819818196
1.8324078899106198
1.7790553293888955
1.735110569409178
1.699735573838635
1.6721881028929633
1.651746526275727
1.6376304597441804
1.6289535654958807
1.6247282959683715
1.62391774209868
1.6255116932629892
1.6286003366366177
1.6324267872154739
1.6364115919409072
1.6401518530235952
1.6434032814780597
1.6460539523676694
1.648095942289427
1.6496006673059618
1.6506981225964912
1.6515539719193004
1.6523548232211467
1.653296830319106
1.6545445091295268
1.6561456203835432
1.6580912494366729
1.6605623682730395
1.6640745412397255
1.669344391462314
1.6771295864747704
1.6881765034160119
1.703049495598937
1.7220727717552933
1.745455383532839
1.7732930650401477
1.8055265473354813
1.8420234941242142
1.8826758220694373
1.9274160772917937
1.9762223811872826
2.029135516202406
2.086261994242239
2.1477623445346867
2.2138313842830124
2.2846742625511496
2.3604836322451925
2.441416876562077
2.5275642173166197
2.6189069983225632
2.7152762406128135
2.8163167791497132
2.9214414496634165
3.0297600434144902
3.140030671354031
3.2507170228321005
3.3601838528965158
3.4669745713937674
3.570066557160766
3.6690140437733945
3.763936324919195
3.8553764157965373
3.944102019292485
4.03092089086603
4.1165540315563725
4.201665007326327
4.290422635701342
4.487336112171473
5.343135540031024
7.108227586412678
8.904388505981286
10.016164895831562
10.58222894714814
10.891921839112086
11.110067174876034
11.304474214655194
11.49225803526465
11.664771942938902
11.795822344599914
11.847398403499826
11.79501693316102
11.671969254853705
11.568957316036073
11.565745133428443
11.667344274043217
11.793769836034782
11.848449017377654
3.256639430099163
3.2390736563246203
3.18807814628331
3.105416258076969
2.993712781142407
2.8596085357124528
2.7118952440090327
2.5597468511973833
2.411184736817625
2.272163696534493
2.1463525762351305
2.035410457324435
1.939487279645903
1.857753588075314
1.7888589221296254
1.7312782503210369
1.6835376033945706
1.644331027396292
1.612551722883139
1.5872617366039272
1.567625339984906
1.5528351167587289
1.5420604024094384
1.5344373280128571
1.529100368286732
1.5252378808719809
1.5221480363325572
1.5192770719128021
1.51623336602227
1.5127793616740346
1.508810382429901
1.5043292574180394
1.499418697862564
1.4942180677792702
1.4889098421252864
1.4836906928077624
1.4787233271762708
1.474018242778966
1.4694212280225338
1.46517720080269
1.4622706212877026
1.461986014551527
1.465590481929732
1.473995458639805
1.487670964391528
1.5068714564565309
1.5315763550848946
1.5615476336238723
1.5965296638625808
1.6362906006076257
1.6805743261192834
1.7291180512790945
1.781685412650154
1.8380951280163413
1.898242778406453
1.9621139965727308
2.029779593217925
2.101368821268904
2.177028196014307
2.256878696448481
2.3409877008983
2.4293582053554688
2.5219171162606244
2.6185028730865696
2.71887729117445
2.822762890737911
2.9298374794233535
3.0396034350116685
3.1511958453098643