# vtk DataFile Version 3.0 
shock_diffraction_time_series_295_.vtk
ASCII
DATASET UNSTRUCTURED_GRID
POINTS         10201 double
0.0 0.0 0.0
0.01 0.0 0.0
0.02 0.0 0.0
0.03 0.0 0.0
0.04 0.0 0.0
0.05 0.0 0.0
0.06 0.0 0.0
0.07 0.0 0.0
0.08 0.0 0.0
0.09 0.0 0.0
0.1 0.0 0.0
0.11 0.0 0.0
0.12 0.0 0.0
0.13 0.0 0.0
0.14 0.0 0.0
0.15 0.0 0.0
0.16 0.0 0.0
0.17 0.0 0.0
0.18 0.0 0.0
0.19 0.0 0.0
0.2 0.0 0.0
0.21 0.0 0.0
0.22 0.0 0.0
0.23 0.0 0.0
0.24 0.0 0.0
0.25 0.0 0.0
0.26 0.0 0.0
0.27 0.0 0.0
0.28 0.0 0.0
0.29 0.0 0.0
0.3 0.0 0.0
0.31 0.0 0.0
0.32 0.0 0.0
0.33 0.0 0.0
0.34 0.0 0.0
0.35000000000000003 0.0 0.0
0.36 0.0 0.0
0.37 0.0 0.0
0.38 0.0 0.0
0.39 0.0 0.0
0.4 0.0 0.0
0.41000000000000003 0.0 0.0
0.42 0.0 0.0
0.43 0.0 0.0
0.44 0.0 0.0
0.45 0.0 0.0
0.46 0.0 0.0
0.47000000000000003 0.0 0.0
0.48 0.0 0.0
0.49 0.0 0.0
0.5 0.0 0.0
0.51 0.0 0.0
0.52 0.0 0.0
0.53 0.0 0.0
0.54 0.0 0.0
0.55 0.0 0.0
0.56 0.0 0.0
0.5700000000000001 0.0 0.0
0.58 0.0 0.0
0.59 0.0 0.0
0.6 0.0 0.0
0.61 0.0 0.0
0.62 0.0 0.0
0.63 0.0 0.0
0.64 0.0 0.0
0.65 0.0 0.0
0.66 0.0 0.0
0.67 0.0 0.0
0.68 0.0 0.0
0.6900000000000001 0.0 0.0
0.7000000000000001 0.0 0.0
0.71 0.0 0.0
0.72 0.0 0.0
0.73 0.0 0.0
0.74 0.0 0.0
0.75 0.0 0.0
0.76 0.0 0.0
0.77 0.0 0.0
0.78 0.0 0.0
0.79 0.0 0.0
0.8 0.0 0.0
0.81 0.0 0.0
0.8200000000000001 0.0 0.0
0.8300000000000001 0.0 0.0
0.84 0.0 0.0
0.85 0.0 0.0
0.86 0.0 0.0
0.87 0.0 0.0
0.88 0.0 0.0
0.89 0.0 0.0
0.9 0.0 0.0
0.91 0.0 0.0
0.92 0.0 0.0
0.93 0.0 0.0
0.9400000000000001 0.0 0.0
0.9500000000000001 0.0 0.0
0.96 0.0 0.0
0.97 0.0 0.0
0.98 0.0 0.0
0.99 0.0 0.0
1.0 0.0 0.0
0.0 0.01 0.0
0.01 0.01 0.0
0.02 0.01 0.0
0.03 0.01 0.0
0.04 0.01 0.0
0.05 0.01 0.0
0.06 0.01 0.0
0.07 0.01 0.0
0.08 0.01 0.0
0.09 0.01 0.0
0.1 0.01 0.0
0.11 0.01 0.0
0.12 0.01 0.0
0.13 0.01 0.0
0.14 0.01 0.0
0.15 0.01 0.0
0.16 0.01 0.0
0.17 0.01 0.0
0.18 0.01 0.0
0.19 0.01 0.0
0.2 0.01 0.0
0.21 0.01 0.0
0.22 0.01 0.0
0.23 0.01 0.0
0.24 0.01 0.0
0.25 0.01 0.0
0.26 0.01 0.0
0.27 0.01 0.0
0.28 0.01 0.0
0.29 0.01 0.0
0.3 0.01 0.0
0.31 0.01 0.0
0.32 0.01 0.0
0.33 0.01 0.0
0.34 0.01 0.0
0.35000000000000003 0.01 0.0
0.36 0.01 0.0
0.37 0.01 0.0
0.38 0.01 0.0
0.39 0.01 0.0
0.4 0.01 0.0
0.41000000000000003 0.01 0.0
0.42 0.01 0.0
0.43 0.01 0.0
0.44 0.01 0.0
0.45 0.01 0.0
0.46 0.01 0.0
0.47000000000000003 0.01 0.0
0.48 0.01 0.0
0.49 0.01 0.0
0.5 0.01 0.0
0.51 0.01 0.0
0.52 0.01 0.0
0.53 0.01 0.0
0.54 0.01 0.0
0.55 0.01 0.0
0.56 0.01 0.0
0.5700000000000001 0.01 0.0
0.58 0.01 0.0
0.59 0.01 0.0
0.6 0.01 0.0
0.61 0.01 0.0
0.62 0.01 0.0
0.63 0.01 0.0
0.64 0.01 0.0
0.65 0.01 0.0
0.66 0.01 0.0
0.67 0.01 0.0
0.68 0.01 0.0
0.6900000000000001 0.01 0.0
0.7000000000000001 0.01 0.0
0.71 0.01 0.0
0.72 0.01 0.0
0.73 0.01 0.0
0.74 0.01 0.0
0.75 0.01 0.0
0.76 0.01 0.0
0.77 0.01 0.0
0.78 0.01 0.0
0.79 0.01 0.0
0.8 0.01 0.0
0.81 0.01 0.0
0.8200000000000001 0.01 0.0
0.8300000000000001 0.01 0.0
0.84 0.01 0.0
0.85 0.01 0.0
0.86 0.01 0.0
0.87 0.01 0.0
0.88 0.01 0.0
0.89 0.01 0.0
0.9 0.01 0.0
0.91 0.01 0.0
0.92 0.01 0.0
0.93 0.01 0.0
0.9400000000000001 0.01 0.0
0.9500000000000001 0.01 0.0
0.96 0.01 0.0
0.97 0.01 0.0
0.98 0.01 0.0
0.99 0.01 0.0
1.0 0.01 0.0
0.0 0.02 0.0
0.01 0.02 0.0
0.02 0.02 0.0
0.03 0.02 0.0
0.04 0.02 0.0
0.05 0.02 0.0
0.06 0.02 0.0
0.07 0.02 0.0
0.08 0.02 0.0
0.09 0.02 0.0
0.1 0.02 0.0
0.11 0.02 0.0
0.12 0.02 0.0
0.13 0.02 0.0
0.14 0.02 0.0
0.15 0.02 0.0
0.16 0.02 0.0
0.17 0.02 0.0
0.18 0.02 0.0
0.19 0.02 0.0
0.2 0.02 0.0
0.21 0.02 0.0
0.22 0.02 0.0
0.23 0.02 0.0
0.24 0.02 0.0
0.25 0.02 0.0
0.26 0.02 0.0
0.27 0.02 0.0
0.28 0.02 0.0
0.29 0.02 0.0
0.3 0.02 0.0
0.31 0.02 0.0
0.32 0.02 0.0
0.33 0.02 0.0
0.34 0.02 0.0
0.35000000000000003 0.02 0.0
0.36 0.02 0.0
0.37 0.02 0.0
0.38 0.02 0.0
0.39 0.02 0.0
0.4 0.02 0.0
0.41000000000000003 0.02 0.0
0.42 0.02 0.0
0.43 0.02 0.0
0.44 0.02 0.0
0.45 0.02 0.0
0.46 0.02 0.0
0.47000000000000003 0.02 0.0
0.48 0.02 0.0
0.49 0.02 0.0
0.5 0.02 0.0
0.51 0.02 0.0
0.52 0.02 0.0
0.53 0.02 0.0
0.54 0.02 0.0
0.55 0.02 0.0
0.56 0.02 0.0
0.5700000000000001 0.02 0.0
0.58 0.02 0.0
0.59 0.02 0.0
0.6 0.02 0.0
0.61 0.02 0.0
0.62 0.02 0.0
0.63 0.02 0.0
0.64 0.02 0.0
0.65 0.02 0.0
0.66 0.02 0.0
0.67 0.02 0.0
0.68 0.02 0.0
0.6900000000000001 0.02 0.0
0.7000000000000001 0.02 0.0
0.71 0.02 0.0
0.72 0.02 0.0
0.73 0.02 0.0
0.74 0.02 0.0
0.75 0.02 0.0
0.76 0.02 0.0
0.77 0.02 0.0
0.78 0.02 0.0
0.79 0.02 0.0
0.8 0.02 0.0
0.81 0.02 0.0
0.8200000000000001 0.02 0.0
0.8300000000000001 0.02 0.0
0.84 0.02 0.0
0.85 0.02 0.0
0.86 0.02 0.0
0.87 0.02 0.0
0.88 0.02 0.0
0.89 0.02 0.0
0.9 0.02 0.0
0.91 0.02 0.0
0.92 0.02 0.0
0.93 0.02 0.0
0.9400000000000001 0.02 0.0
0.9500000000000001 0.02 0.0
0.96 0.02 0.0
0.97 0.02 0.0
0.98 0.02 0.0
0.99 0.02 0.0
1.0 0.02 0.0
0.0 0.03 0.0
0.01 0.03 0.0
0.02 0.03 0.0
0.03 0.03 0.0
0.04 0.03 0.0
0.05 0.03 0.0
0.06 0.03 0.0
0.07 0.03 0.0
0.08 0.03 0.0
0.09 0.03 0.0
0.1 0.03 0.0
0.11 0.03 0.0
0.12 0.03 0.0
0.13 0.03 0.0
0.14 0.03 0.0
0.15 0.03 0.0
0.16 0.03 0.0
0.17 0.03 0.0
0.18 0.03 0.0
0.19 0.03 0.0
0.2 0.03 0.0
0.21 0.03 0.0
0.22 0.03 0.0
0.23 0.03 0.0
0.24 0.03 0.0
0.25 0.03 0.0
0.26 0.03 0.0
0.27 0.03 0.0
0.28 0.03 0.0
0.29 0.03 0.0
0.3 0.03 0.0
0.31 0.03 0.0
0.32 0.03 0.0
0.33 0.03 0.0
0.34 0.03 0.0
0.35000000000000003 0.03 0.0
0.36 0.03 0.0
0.37 0.03 0.0
0.38 0.03 0.0
0.39 0.03 0.0
0.4 0.03 0.0
0.41000000000000003 0.03 0.0
0.42 0.03 0.0
0.43 0.03 0.0
0.44 0.03 0.0
0.45 0.03 0.0
0.46 0.03 0.0
0.47000000000000003 0.03 0.0
0.48 0.03 0.0
0.49 0.03 0.0
0.5 0.03 0.0
0.51 0.03 0.0
0.52 0.03 0.0
0.53 0.03 0.0
0.54 0.03 0.0
0.55 0.03 0.0
0.56 0.03 0.0
0.5700000000000001 0.03 0.0
0.58 0.03 0.0
0.59 0.03 0.0
0.6 0.03 0.0
0.61 0.03 0.0
0.62 0.03 0.0
0.63 0.03 0.0
0.64 0.03 0.0
0.65 0.03 0.0
0.66 0.03 0.0
0.67 0.03 0.0
0.68 0.03 0.0
0.6900000000000001 0.03 0.0
0.7000000000000001 0.03 0.0
0.71 0.03 0.0
0.72 0.03 0.0
0.73 0.03 0.0
0.74 0.03 0.0
0.75 0.03 0.0
0.76 0.03 0.0
0.77 0.03 0.0
0.78 0.03 0.0
0.79 0.03 0.0
0.8 0.03 0.0
0.81 0.03 0.0
0.8200000000000001 0.03 0.0
0.8300000000000001 0.03 0.0
0.84 0.03 0.0
0.85 0.03 0.0
0.86 0.03 0.0
0.87 0.03 0.0
0.88 0.03 0.0
0.89 0.03 0.0
0.9 0.03 0.0
0.91 0.03 0.0
0.92 0.03 0.0
0.93 0.03 0.0
0.9400000000000001 0.03 0.0
0.9500000000000001 0.03 0.0
0.96 0.03 0.0
0.97 0.03 0.0
0.98 0.03 0.0
0.99 0.03 0.0
1.0 0.03 0.0
0.0 0.04 0.0
0.01 0.04 0.0
0.02 0.04 0.0
0.03 0.04 0.0
0.04 0.04 0.0
0.05 0.04 0.0
0.06 0.04 0.0
0.07 0.04 0.0
0.08 0.04 0.0
0.09 0.04 0.0
0.1 0.04 0.0
0.11 0.04 0.0
0.12 0.04 0.0
0.13 0.04 0.0
0.14 0.04 0.0
0.15 0.04 0.0
0.16 0.04 0.0
0.17 0.04 0.0
0.18 0.04 0.0
0.19 0.04 0.0
0.2 0.04 0.0
0.21 0.04 0.0
0.22 0.04 0.0
0.23 0.04 0.0
0.24 0.04 0.0
0.25 0.04 0.0
0.26 0.04 0.0
0.27 0.04 0.0
0.28 0.04 0.0
0.29 0.04 0.0
0.3 0.04 0.0
0.31 0.04 0.0
0.32 0.04 0.0
0.33 0.04 0.0
0.34 0.04 0.0
0.35000000000000003 0.04 0.0
0.36 0.04 0.0
0.37 0.04 0.0
0.38 0.04 0.0
0.39 0.04 0.0
0.4 0.04 0.0
0.41000000000000003 0.04 0.0
0.42 0.04 0.0
0.43 0.04 0.0
0.44 0.04 0.0
0.45 0.04 0.0
0.46 0.04 0.0
0.47000000000000003 0.04 0.0
0.48 0.04 0.0
0.49 0.04 0.0
0.5 0.04 0.0
0.51 0.04 0.0
0.52 0.04 0.0
0.53 0.04 0.0
0.54 0.04 0.0
0.55 0.04 0.0
0.56 0.04 0.0
0.5700000000000001 0.04 0.0
0.58 0.04 0.0
0.59 0.04 0.0
0.6 0.04 0.0
0.61 0.04 0.0
0.62 0.04 0.0
0.63 0.04 0.0
0.64 0.04 0.0
0.65 0.04 0.0
0.66 0.04 0.0
0.67 0.04 0.0
0.68 0.04 0.0
0.6900000000000001 0.04 0.0
0.7000000000000001 0.04 0.0
0.71 0.04 0.0
0.72 0.04 0.0
0.73 0.04 0.0
0.74 0.04 0.0
0.75 0.04 0.0
0.76 0.04 0.0
0.77 0.04 0.0
0.78 0.04 0.0
0.79 0.04 0.0
0.8 0.04 0.0
0.81 0.04 0.0
0.8200000000000001 0.04 0.0
0.8300000000000001 0.04 0.0
0.84 0.04 0.0
0.85 0.04 0.0
0.86 0.04 0.0
0.87 0.04 0.0
0.88 0.04 0.0
0.89 0.04 0.0
0.9 0.04 0.0
0.91 0.04 0.0
0.92 0.04 0.0
0.93 0.04 0.0
0.9400000000000001 0.04 0.0
0.9500000000000001 0.04 0.0
0.96 0.04 0.0
0.97 0.04 0.0
0.98 0.04 0.0
0.99 0.04 0.0
1.0 0.04 0.0
0.0 0.05 0.0
0.01 0.05 0.0
0.02 0.05 0.0
0.03 0.05 0.0
0.04 0.05 0.0
0.05 0.05 0.0
0.06 0.05 0.0
0.07 0.05 0.0
0.08 0.05 0.0
0.09 0.05 0.0
0.1 0.05 0.0
0.11 0.05 0.0
0.12 0.05 0.0
0.13 0.05 0.0
0.14 0.05 0.0
0.15 0.05 0.0
0.16 0.05 0.0
0.17 0.05 0.0
0.18 0.05 0.0
0.19 0.05 0.0
0.2 0.05 0.0
0.21 0.05 0.0
0.22 0.05 0.0
0.23 0.05 0.0
0.24 0.05 0.0
0.25 0.05 0.0
0.26 0.05 0.0
0.27 0.05 0.0
0.28 0.05 0.0
0.29 0.05 0.0
0.3 0.05 0.0
0.31 0.05 0.0
0.32 0.05 0.0
0.33 0.05 0.0
0.34 0.05 0.0
0.35000000000000003 0.05 0.0
0.36 0.05 0.0
0.37 0.05 0.0
0.38 0.05 0.0
0.39 0.05 0.0
0.4 0.05 0.0
0.41000000000000003 0.05 0.0
0.42 0.05 0.0
0.43 0.05 0.0
0.44 0.05 0.0
0.45 0.05 0.0
0.46 0.05 0.0
0.47000000000000003 0.05 0.0
0.48 0.05 0.0
0.49 0.05 0.0
0.5 0.05 0.0
0.51 0.05 0.0
0.52 0.05 0.0
0.53 0.05 0.0
0.54 0.05 0.0
0.55 0.05 0.0
0.56 0.05 0.0
0.5700000000000001 0.05 0.0
0.58 0.05 0.0
0.59 0.05 0.0
0.6 0.05 0.0
0.61 0.05 0.0
0.62 0.05 0.0
0.63 0.05 0.0
0.64 0.05 0.0
0.65 0.05 0.0
0.66 0.05 0.0
0.67 0.05 0.0
0.68 0.05 0.0
0.6900000000000001 0.05 0.0
0.7000000000000001 0.05 0.0
0.71 0.05 0.0
0.72 0.05 0.0
0.73 0.05 0.0
0.74 0.05 0.0
0.75 0.05 0.0
0.76 0.05 0.0
0.77 0.05 0.0
0.78 0.05 0.0
0.79 0.05 0.0
0.8 0.05 0.0
0.81 0.05 0.0
0.8200000000000001 0.05 0.0
0.8300000000000001 0.05 0.0
0.84 0.05 0.0
0.85 0.05 0.0
0.86 0.05 0.0
0.87 0.05 0.0
0.88 0.05 0.0
0.89 0.05 0.0
0.9 0.05 0.0
0.91 0.05 0.0
0.92 0.05 0.0
0.93 0.05 0.0
0.9400000000000001 0.05 0.0
0.9500000000000001 0.05 0.0
0.96 0.05 0.0
0.97 0.05 0.0
0.98 0.05 0.0
0.99 0.05 0.0
1.0 0.05 0.0
0.0 0.06 0.0
0.01 0.06 0.0
0.02 0.06 0.0
0.03 0.06 0.0
0.04 0.06 0.0
0.05 0.06 0.0
0.06 0.06 0.0
0.07 0.06 0.0
0.08 0.06 0.0
0.09 0.06 0.0
0.1 0.06 0.0
0.11 0.06 0.0
0.12 0.06 0.0
0.13 0.06 0.0
0.14 0.06 0.0
0.15 0.06 0.0
0.16 0.06 0.0
0.17 0.06 0.0
0.18 0.06 0.0
0.19 0.06 0.0
0.2 0.06 0.0
0.21 0.06 0.0
0.22 0.06 0.0
0.23 0.06 0.0
0.24 0.06 0.0
0.25 0.06 0.0
0.26 0.06 0.0
0.27 0.06 0.0
0.28 0.06 0.0
0.29 0.06 0.0
0.3 0.06 0.0
0.31 0.06 0.0
0.32 0.06 0.0
0.33 0.06 0.0
0.34 0.06 0.0
0.35000000000000003 0.06 0.0
0.36 0.06 0.0
0.37 0.06 0.0
0.38 0.06 0.0
0.39 0.06 0.0
0.4 0.06 0.0
0.41000000000000003 0.06 0.0
0.42 0.06 0.0
0.43 0.06 0.0
0.44 0.06 0.0
0.45 0.06 0.0
0.46 0.06 0.0
[...]
POINT_DATA  10201
FIELD  FlowField  4
Density    1 10201  double
1.0000041583002401
1.0000047534828478
1.0000065396330795
1.0000097185262522
1.0000148276931022
1.0000226366520364
1.0000340520347684
1.0000499554369506
1.0000709347021388
1.0000969222952443
1.000126824053432
1.0001582952880606
1.000187845858283
1.0002113742427066
1.0002250635031817
1.0002263863312906
1.0002148543930551
1.0001922057846795
1.0001619468044374
1.0001284280774043
1.0000957972954618
1.0000671731298152
1.0000442532613065
1.000027376059347
1.000015894528096
1.0000086567516666
1.0000044205522625
1.0000021154465548
1.0000009482697247
1.0000003980003773
1.0000001563510859
1.0000000574734162
1.0000000197659324
1.0000000063599996
1.000000001915049
1.0000000005398675
1.0000000001425962
1.0000000000353277
1.000000000008221
1.0000000000018003
1.0000000000003721
1.0000000000000724
1.000000000000013
1.0000000000000022
1.0
1.0
1.0
1.0
1.0
1.0
1.0
1.0
1.0
1.0
1.0
1.0
1.0
1.0
1.0
1.0
1.0
1.0
1.0
1.0
1.0
1.0
1.0
1.0
1.0
1.0
1.0
1.0
1.0
1.0
1.0
1.0
1.0
1.0
1.0
1.0
1.0
1.0
1.0
1.0
1.0
1.0
1.0
1.0
1.0
1.0
1.0
1.0
1.0
1.0
1.0
1.0
1.0
1.0
1.0
1.0
1.0
1.0000145951141743
1.000016693913692
1.000022969071104
1.000034141666258
1.0000522160579617
1.0000801179669039
1.0001214074441434
1.000179754124733
1.0002579880297866
1.0003567281820769
1.0004728466308865
1.0005983355533197
1.000720323485957
1.0008227591734467
1.0008896772159728
1.0009092184194999
1.000877020163241
1.0007976389373052
1.0006834077730193
1.0005511740941246
1.0004181341922906
1.0002981718205168
1.00019974262909
1.0001256252997432
1.0000741393510177
1.00004103530439
1.0000212902199392
1.0000103489465455
1.000004710769491
1.000002007082571
1.0000008000832121
1.0000002983003762
1.0000001039969144
1.000000033899962
1.0000000103332782
1.0000000029463894
1.000000000786384
1.0000000001966516
1.0000000000461386
1.000000000010174
1.0000000000021134
1.0000000000004141
1.0000000000000764
1.0000000000000133
1.000000000000002
1.0000000000000002
1.0
1.0
1.0
1.0
1.0
1.0
1.0
1.0
1.0
1.0
1.0
1.0
1.0
1.0
1.0
1.0
1.0
1.0
1.0
1.0
1.0
1.0
1.0
1.0
1.0
1.0
1.0
1.0
1.0
1.0
1.0
1.0
1.0
1.0
1.0
1.0
1.0
1.0
1.0
1.0
1.0
1.0
1.0
1.0
1.0
1.0
1.0
1.0
1.0
1.0
1.0
1.0
1.0
1.0
1.0
1.0000881918556737
1.000100901405907
1.0001386864634814
1.000205890704934
1.0003152866381195
1.0004858346060144
1.0007412503603388
1.0011071348982878
1.0016052333825116
1.0022446003070198
1.00301108507209
1.0038587019676455
1.004707944303774
1.0054548096131146
1.0059903660004612
1.0062261601197007
1.0061174033553484
1.0056757591949421
1.0049671456860612
1.0040954029820992
1.0031773106421886
1.0023168220571768
1.0015862155382655
1.0010188767984853
1.0006136259740808
1.0003463354289346
1.0001831122773714
1.000090654009079
1.0000420070472655
1.0000182110127303
1.000007383072782
1.000002798106283
1.0000009910225118
1.0000003279584742
1.0000001014077262
1.0000000293049223
1.000000007918654
1.0000000020025055
1.0000000004745089
1.0000000001055314
1.0000000000220743
1.0000000000043534
1.0000000000008116
1.0000000000001434
1.000000000000024
1.0000000000000036
1.0000000000000004
1.0
1.0
1.0
1.0
1.0
1.0
1.0
1.0
1.0
1.0
1.0
1.0
1.0
1.0
1.0
1.0
1.0
1.0
1.0
1.0
1.0
1.0
1.0
1.0
1.0
1.0
1.0
1.0
1.0
1.0
1.0
1.0
1.0
1.0
1.0
1.0
1.0
1.0
1.0
1.0
1.0
1.0
1.0
1.0
1.0
1.0
1.0
1.0
1.0
1.0
1.0
1.0
1.0
1.0
1.0005336675412018
1.0006104554499764
1.0008368556169984
1.0012377394034082
1.001891765249982
1.002915530142512
1.00445403288765
1.0066611517320956
1.009661199455989
1.0134933578936438
1.0180532827490927
1.0230575985970363
1.0280562046615263
1.0324968254085274
1.0358239385722727
1.0375856119864741
1.0375217259162577
1.0356145215074186
1.0320932390907938
1.0273943269105865
1.0220845526220828
1.0167586360419203
1.0119308371299807
1.007947013029641
1.0049440659757412
1.002870790310147
1.001555882708879
1.0007873790135582
1.0003722125926033
1.0001643929129282
1.0000678343919724
1.0000261465887612
1.0000094118742313
1.000003163343068
1.0000009926415725
1.0000002908488046
1.0000000796047714
1.000000020366642
1.0000000048762676
1.0000000010942336
1.000000000230596
1.0000000000457485
1.000000000008569
1.0000000000015201
1.0000000000002562
1.0000000000000409
1.000000000000006
1.0000000000000007
1.0
1.0
1.0
1.0
1.0
1.0
1.0
1.0
1.0
1.0
1.0
1.0
1.0
1.0
1.0
1.0
1.0
1.0
1.0
1.0
1.0
1.0
1.0
1.0
1.0
1.0
1.0
1.0
1.0
1.0
1.0
1.0
1.0
1.0
1.0
1.0
1.0
1.0
1.0
1.0
1.0
1.0
1.0
1.0
1.0
1.0
1.0
1.0
1.0
1.0
1.0
1.0
1.0
1.003209622062958
1.0036648870833436
1.004987278372822
1.0072908561282967
1.0109915584776532
1.0166566184236716
1.0248896091654438
1.036169619489238
1.050653220822058
1.0680100502240606
1.0873648274748584
1.107374817384653
1.1264193994190344
1.1428391331926409
1.1551553135385693
1.1622354022171208
1.1634004282541461
1.158480784567424
1.1478296020651046
1.132300730206162
1.1131905972364522
1.0921308949970883
1.0709162851523237
1.0512671989423636
1.0345583420786404
1.0215802391215705
1.0124286701835261
1.0065944806343383
1.0032304092798927
1.0014661856343183
1.000618497885346
1.00024298718029
1.0000889944032703
1.0000303980820369
1.0000096848056292
1.0000028784173185
1.0000007983002734
1.0000002067215878
1.0000000500301334
1.000000011332152
1.0000000024068227
1.0000000004804583
1.0000000000904028
1.0000000000160854
1.000000000002716
1.0000000000004365
1.0000000000000668
1.0000000000000098
1.000000000000001
1.0
1.0
1.0
1.0
1.0
1.0
1.0
1.0
1.0
1.0
1.0
1.0
1.0
1.0
1.0
1.0
1.0
1.0
1.0
1.0
1.0
1.0
1.0
1.0
1.0
1.0
1.0
1.0
1.0
1.0
1.0
1.0
1.0
1.0
1.0
1.0
1.0
1.0
1.0
1.0
1.0
1.0
1.0
1.0
1.0
1.0
1.0
1.0
1.0
1.0
1.0
1.0
1.018418914826114
1.020839786408252
1.0276287597569853
1.0388191077023907
1.0556168733433218
1.0792537217092837
1.1104088945858486
1.1488517196745054
1.193304203234685
1.241571408684773
1.2908697938464169
1.33822648117598
1.3808358102910663
1.416303861359053
1.4427556970996107
1.4588404295459823
1.4636992533082742
1.4569412404449904
1.4386493460219838
1.4094215155299707
1.3704437727132732
1.3235726662494156
1.2713727455434025
1.2170411433821502
1.1641610497864412
1.1162626308440167
1.0762412038802542
1.0457687179154744
1.0249179243368218
1.0122515290044607
1.0054573853780306
1.002222003307295
1.0008343208887533
1.0002905631009729
1.0000941251353153
1.0000283976702051
1.0000079847911707
1.0000020937307763
1.0000005124293774
1.000000117207623
1.000000025098486
1.0000000050430673
1.0000000009534706
1.0000000001701754
1.0000000000287763
1.0000000000046279
1.0000000000007103
1.0000000000001041
1.0000000000000142
1.0000000000000018
1.0000000000000002
1.0
1.0
1.0
1.0
1.0
1.0
1.0
1.0
1.0
1.0
1.0
1.0
1.0
1.0
1.0
1.0
1.0
1.0
1.0
1.0
1.0
1.0
1.0
1.0
1.0
1.0
1.0
1.0
1.0
1.0
1.0
1.0
1.0
1.0
1.0
1.0
1.0
1.0
1.0
1.0
1.0
1.0
1.0
1.0
1.0
1.0
1.0
1.0
1.0
1.0
1.0877370069632488
1.0968232611532962
1.1209642108448812
1.1572944700928456
1.2063457741923092
1.2678788294032446
1.3400481296682705
1.4196120972906425
1.5025038191613362
1.5845230294573909
1.6619118188359294
1.7316815329708164
1.7916735567925448
1.8404414658645962
1.8770465289249036
1.9008319603569612
1.9112502698927218
1.9077786039960356
1.8899211705644965
1.8572784368137452
1.8096825893124024
1.747419526327616
1.6715234142487816
1.584089333341731
1.4885258044446013
1.389629443305734
1.2933149711053364
1.2058665695432813
1.1327700036306327
1.0774273206849787
1.0402169119721554
1.0184373295520628
1.007479770638825
1.0027248005537999
1.0009069076887935
1.0002788496952346
1.0000796153070084
1.0000211556929677
1.0000052389051983
1.0000012106073082
1.0000002614791061
1.0000000529031348
1.000000010053419
1.0000000018002677
1.0000000003048921
1.000000000049031
1.000000000007518
1.0000000000011033
1.0000000000001554
1.0000000000000209
1.0000000000000024
1.0000000000000002
1.0
1.0
1.0
1.0
1.0
1.0
1.0
1.0
1.0
1.0
1.0
1.0
1.0
1.0
1.0
1.0
1.0
1.0
1.0
1.0
1.0
1.0
1.0
1.0
1.0
1.0
1.0
1.0
1.0
1.0
1.0
1.0
1.0
1.0
1.0
1.0
1.0
1.0
1.0
1.0
1.0
1.0
1.0
1.0
1.0
1.0
1.0
1.0
1.0
1.2968469906793958
1.3171914306072432
1.3689245715034701
1.4406608896783046
1.52835260901715
1.6273377465705359
1.731947240850856
1.8364959169780466
1.9361574941624409
2.0274452579162197
2.108292147367409
2.1778370992451634
2.2360379270369997
2.2832521792254408
2.319892319550859
2.346169000944
2.3619323324819885
2.3666207989240307
2.3592916957965873
2.338675489208643
2.303248924776004
2.2513927406716094
2.181644158762345
2.0930473584139864
1.9856313542108632
1.8609937393074223
1.7228911492047974
1.5776318669565665
1.433958855292801
1.302033881738312
1.1913393644916406
1.1080926389089787
1.0533293723747812
1.0226543883188954
1.0083058400510163
1.002686556794482
1.0007879016790675
1.0002129863936853
1.0000534413991764
1.0000124849437104
1.0000027213076672
1.0000005546218134
1.0000001059730153
1.0000000190440768
1.0000000032307057
1.0000000005194964
1.0000000000795226
1.000000000011639
1.0000000000016351
1.0000000000002214
1.0000000000000289
1.0000000000000036
1.0000000000000004
1.0
1.0
1.0
1.0
1.0
1.0
1.0
1.0
1.0
1.0
1.0
1.0
1.0
1.0
1.0
1.0
1.0
1.0
1.0
1.0
1.0
1.0
1.0
1.0
1.0
1.0
1.0
1.0
1.0
1.0
1.0
1.0
1.0
1.0
1.0
1.0
1.0
1.0
1.0
1.0
1.0
1.0
1.0
1.0
1.0
1.0
1.0
1.0
1.7009920677837131
1.727701829882005
1.7943357184110797
1.8821584879697943
1.9815961792227563
2.084564662693973
2.1844085538492823
2.276370992199195
2.3577622237235736
2.4277121260733603
2.486696841910401
2.536002979604926
2.577239665968953
2.6119270597618103
2.641196321699906
2.6656356445035194
2.6852315998365093
2.699381236276304
2.706958456467772
2.7063583580641493
2.6955249715844607
2.6720024112406002
2.6329947716902766
2.575486309079686
2.496484683924271
2.3934404033488974
2.2649071620595027
2.1114713996429617
1.9368511828197275
1.7488340992256197
1.5594701806601616
1.383824266498809
1.2366943470279987
1.1279481449087894
1.0590367473245523
1.0228289701192939
1.0074380030416956
1.0021114616837845
1.000542232725628
1.0001284551053653
1.0000282857214822
1.000005810404938
1.0000011167100882
1.000000201450507
1.0000000342378907
1.000000005505141
1.000000000841193
1.0000000001227098
1.0000000000171658
1.0000000000023126
1.000000000000301
1.0000000000000377
1.0000000000000044
1.0000000000000004
1.0
1.0
1.0
1.0
1.0
1.0
1.0
1.0
1.0
1.0
1.0
1.0
1.0
1.0
1.0
1.0
1.0
1.0
1.0
1.0
1.0
1.0
1.0
1.0
1.0
1.0
1.0
1.0
1.0
1.0
1.0
1.0
1.0
1.0
1.0
1.0
1.0
1.0
1.0
1.0
1.0
1.0
1.0
1.0
1.0
1.0
1.0
2.2340741089074205
2.2526052977729547
2.300775577679794
2.3651536504833954
2.4349416695490187
2.502344614534162
2.562685678950151
2.6137423677061418
2.655247824231464
2.688294752022497
2.7147495191733326
2.736751130258918
2.7563843637322023
2.775409307670385
2.79500872305313
2.815721300299331
2.83746689165365
2.859584620051307
2.8809029268963835
2.89980720076202
2.9142953492209465
2.9219628421129578
2.9199372496278464
2.9048469202329628
2.8728236440282675
2.8195757460016257
2.7406042669071806
2.631668078384498
2.489628610282781
2.3137840047231006
2.107650499236289
1.8807235793031702
1.6491718927439458
1.4341439079337694
1.2566723499876034
1.1301074648356895
1.0547527040308793
1.0187551880653678
1.0053115594805266
1.0013086426736275
1.0002931210308994
1.0000608042897765
1.0000117627324836
1.0000021308775808
1.000000362899631
1.0000000583514768
1.0000000088995085
1.0000000012936494
1.0000000001800837
1.000000000024116
1.0000000000031193
1.0000000000003906
1.0000000000000469
1.0000000000000049
1.0000000000000004
1.0
1.0
1.0
1.0
1.0
1.0
1.0
1.0
1.0
1.0
1.0
1.0
1.0
1.0
1.0
1.0
1.0
1.0
1.0
1.0
1.0
1.0
1.0
1.0
1.0
1.0
1.0
1.0
1.0
1.0
1.0
1.0
1.0
1.0
1.0
1.0
1.0
1.0
1.0
1.0
1.0
1.0
1.0
1.0
1.0
1.0
2.7567876568890295
2.754048917016739
2.755134746249358
2.765761292860966
2.7789733482853216
2.7898514117050475
2.796290264944652
2.7979164952491877
2.795584457067896
2.790898225627396
2.785788497406327
2.7821809948563416
2.7818754035799795
2.786375767567696
2.796625431874973
2.812983686092258
2.835280737062231
2.8628346747012268
2.8944861438666316
2.928715779723532
2.963753893004661
2.997524555270716
3.0275478531212876
3.0508762100194935
3.0640184089635727
3.0628597605973438
3.042603805645058
2.9977819444269658
2.9224246623997425
2.8105617166150965
2.6572855304851046
2.4606031155419172
2.2241208845133897
1.9599115048320375
1.689756020590062
1.442410072262696
1.2453571059035076
1.1133537068370252
1.0420363640111798
1.012335300394597
1.0029764545975612
1.0006332439838224
1.0001237592916306
1.0000225358085508
1.0000038471395607
1.0000006186577997
1.000000094172217
1.0000000136378917
1.000000001888515
1.0000000002512761
1.0000000000322689
1.0000000000040155
1.0000000000004854
1.0000000000000568
1.0000000000000064
1.0000000000000007
1.0
1.0
1.0
1.0
1.0
1.0
1.0
1.0
1.0
1.0
1.0
1.0
1.0
1.0
1.0
1.0
1.0
1.0
1.0
1.0
1.0
1.0
1.0
1.0
1.0
1.0
1.0
1.0
1.0
1.0
1.0
1.0
1.0
1.0
1.0
1.0
1.0
1.0
1.0
1.0
1.0
1.0
1.0
1.0
1.0
3.165907900967171
3.136645393726564
3.0797714314020053
3.026704903144503
2.976817693639455
2.9288224339126
2.882627887812667
2.8385995294825697
2.7975520716369866
2.7606275389425865
2.7291076466477704
2.7042457904877057
2.687283371782823
2.6793165197932693
2.681006431765143
2.6925693665195083
2.713818765578823
2.7441326221135505
2.7824334938233464
2.8273286567276186
2.877269685337799
2.930496337693463
2.9849419408423867
3.038179409965113
3.0873467591358614
3.1290507725796295
3.1592536088759724
3.1731467274918486
3.1650299707909815
3.1282496528092807
3.0553196088025842
2.9384770445456896
2.7710634357046198
2.55013239671901
2.280392978069864
1.9784436235980367
1.6741805939912588
1.4055129163498092
1.2047451150625605
1.0829789054656362
1.0259805357727436
1.0063243710683367
1.0012908156143974
1.0002379712233669
1.0000407823119297
1.0000065609765316
1.0000009967487284
1.0000001437764316
1.000000019797717
1.0000000026159277
1.0000000003332832
1.0000000000411198
1.0000000000049314
1.0000000000005764
1.0000000000000657
1.000000000000007
1.0000000000000007
1.0
1.0
1.0
1.0
1.0
1.0
1.0
1.0
1.0
1.0
1.0
1.0
1.0
1.0
1.0
1.0
1.0
1.0
1.0
1.0
1.0
1.0
1.0
1.0
1.0
1.0
1.0
1.0
1.0
1.0
1.0
1.0
1.0
1.0
1.0
1.0
1.0
1.0
1.0
1.0
1.0
1.0
1.0
1.0
3.428157533642648
3.3730576150834963
3.260375745961951
3.147516690135996
3.040215185941216
2.9403665967425887
2.8492575685500574
2.7673448611801854
2.6948710149110324
2.6321479125035756
2.579594763896171
2.5377010360561965
2.507088934983101
2.488412254948239
2.4820914289223244
2.4882757910009463
2.5068500554670914
2.5373498881620327
2.5788867523449146
2.6302357321282264
2.6900244324259814
2.7567442696227618
2.828664077551557
2.9037815150566337
2.9797623759726175
3.0538615157291553
3.1228307987177386
3.1828086231427264
3.2291786882668925
3.2563914387219315
3.2577648640772505
3.2253363555083423
3.149943654313651
3.0219180076894525
2.8330154265320884
2.5802279741394174
2.2715384080617955
1.9315624369000846
1.6016891242296643
1.3291011882315364
1.1452685020292719
1.0491666883009154
1.0124193089963842
1.002472387666377
1.0004312559725825
1.0000695762677942
1.0000105524842318
1.0000015158371443
1.0000002074727008
1.000000027209496
1.0000000034370937
1.000000000420143
1.0000000000498996
1.000000000005778
1.0000000000006537
1.000000000000072
1.0000000000000075
1.0000000000000007
1.0
1.0
1.0
1.0
1.0
1.0
1.0
1.0
1.0
1.0
1.0
1.0
1.0
1.0
1.0
1.0
1.0
1.0
1.0
1.0
1.0
1.0
1.0
1.0
1.0
1.0
1.0
1.0
1.0
1.0
1.0
1.0
1.0
1.0
1.0
1.0
1.0
1.0
1.0
1.0
1.0
1.0
1.0
3.5566946620776596
3.4785081618412415
3.3165573623375586
3.152345161531407
2.9971135063865173
2.854863815842966
2.7276658450832088
2.6157699021195144
2.5187057963146144
2.4359073953807266
2.3669454415805493
2.3115925759551077
2.2698637593185316
2.2419545062288595
2.2280681723182925
2.228330789962582
2.242744817858412
2.2710763355850636
2.3127345701174473
2.3667471137147538
2.431912002837714
2.5069264940501323
2.59035325804434
2.680555308432498
2.7756322746953908
2.8733435767445625
2.971032795810473
3.065555449597992
3.1531945368028
3.2295389320860353
3.2893012711714302
3.326064664422204
3.331980345370368
3.2975203420787245
3.211562852522884
3.0624249404191164
2.8408290661946207
2.5456905242552867
2.192329921911604
1.8186319548078622
1.4802819159776173
1.2290018063421635
1.0837484915325426
1.0223464906394835
1.004427982926901
1.0007347022843311
1.0001116857562158
1.0000159818719678
1.0000021734822495
1.0000002827538133
1.0000000353884273
1.000000004282636
1.0000000005033376
1.0000000000576659
1.00000000000646
1.0000000000007088
1.0000000000000762
1.000000000000008
1.0000000000000007
1.0
1.0
1.0
1.0
1.0
1.0
1.0
1.0
1.0
1.0
1.0
1.0
1.0
1.0
1.0
1.0
1.0
1.0
1.0
1.0
1.0
1.0
1.0
1.0
1.0
1.0
1.0
1.0
1.0
1.0
1.0
1.0
1.0
1.0
1.0
1.0
1.0
1.0
1.0
1.0
1.0
1.0
3.582224190050354
3.4834256289312284
3.277908483954012
3.06982602290369
2.8754235479488828
2.6995441719708038
2.5443328059771244
2.409545598114681
2.2939385896689806
2.196108995618566
2.114856062343991
2.049303289162724
1.9989070222733798
1.9634053871196693
1.9427434262459482
1.9369916044514381
1.9462480256100108
1.9705122845212477
2.009542666812909
2.0627329585448315
2.1291287031863884
2.2076147412604774
2.297030309675791
2.396115404192697
2.5034126907172265
2.6171634534100146
2.735214541631702
2.8549539620863937
2.973267801828014
3.086492667760345
3.1903333854201135
3.2797140505229105
3.34852960112595
3.3892812537295667
3.3926349491738175
3.347078232282948
3.239151730764192
3.0552810329359215
2.7866951702986036
2.438353499299283
2.0396961360271817
1.6477823823989666
1.3303907628253442
1.129665410636762
1.0367472492385026
1.0073790982893662
1.0011735862441464
1.0001683623876778
1.0000227591171198
1.000002935312549
1.0000003637055415
1.0000000435389906
1.0000000050594822
1.000000000573015
1.0000000000634588
1.00000000000689
1.000000000000735
1.0000000000000768
1.0000000000000078
1.0000000000000007
1.0
1.0
1.0
1.0
1.0
1.0
1.0
1.0
1.0
1.0
1.0
1.0
1.0
1.0
1.0
1.0
1.0
1.0
1.0
1.0
1.0
1.0
1.0
1.0
1.0
1.0
1.0
1.0
1.0
1.0
1.0
1.0
1.0
1.0
1.0
1.0
1.0
1.0
1.0
1.0
1.0
3.53547612312828
3.417602617466833
3.172042361089976
2.9252084650766155
2.6984621682542445
2.496352939167619
2.3202558571627474
2.1690199862716573
2.0404927763239264
1.932445055928193
1.8429652253515338
1.7705809688805054
1.7142461690512623
1.6732812285216754
1.647324498455293
1.6362773045408185
1.640222484569661
1.6593107553128184
1.6936077285480962
1.7429286256976437
1.8067177409990576
1.8841096791288816
1.9741740848705724
2.0760353651206094
2.1887554748588767
2.311155321651742
2.4416624657132746
2.5782107087009027
2.7181955021862274
2.858460446897575
2.9952881869762784
3.1243685622851003
3.2407052512439263
3.338411625218958
3.4103488266180033
3.447592497894057
3.438816392113371
3.3699266830616805
3.2248301915314235
2.989040622036862
2.658090231159567
2.250758171707513
1.8196973521521647
1.4427471153115943
1.1847358457875625
1.055408117869526
1.0114003295877412
1.001753139966257
1.0002378965868504
1.0000304337483423
1.000003730481222
1.0000004413243695
1.0000000506581463
1.0000000056664984
1.0000000006198462
1.0000000000664966
1.000000000007012
1.0000000000007276
1.0000000000000744
1.0000000000000075
1.0000000000000007
1.0
1.0
1.0
1.0
1.0
1.0
1.0
1.0
1.0
1.0
1.0
1.0
1.0
1.0
1.0
1.0
1.0
1.0
1.0
1.0
1.0
1.0
1.0
1.0
1.0
1.0
1.0
1.0
1.0
1.0
1.0
1.0
1.0
1.0
1.0
1.0
1.0
1.0
1.0
1.0
3.4404522231365844
3.304214628138662
3.0205324571789434
2.7385016945065708
2.4848973801885474
2.2630534555166175
2.0726550908564416
1.9111466445411902
1.7752554497626631
1.6618851775521146
1.5684452667337316
1.4929152225442723
1.4337966040803982
1.3900380157047412
1.3609650651488918
1.3462195884813517
1.3457123225307699
1.359561153930077
1.387990954939576
1.4311774954052348
1.4890582299316284
1.561212758501616
1.6469754397700656
1.7457506339735023
1.8571175584436892
1.9805947848747831
2.1153609594623357
2.260072264009192
2.4127672651455994
2.5708348539681025
2.73101952424872
2.8894500942613104
3.0416641404965414
3.1825842865539564
3.3063838004817634
3.4061701431264977
3.4734313612471537
3.4972623321675975
3.4635851819024195
3.3550605741693404
3.153345708235506
2.846316365590985
2.442050342307032
1.985251297590524
1.558080780259868
1.245048485995329
1.0771514361297938
1.016309627782249
1.0024435131835439
1.0003145305017638
1.0000381687865478