# vtk DataFile Version 3.0 
shock_diffraction_time_series_226_.vtk
ASCII
DATASET UNSTRUCTURED_GRID
POINTS         10201 double
0.0 0.0 0.0
0.01 0.0 0.0
0.02 0.0 0.0
0.03 0.0 0.0
0.04 0.0 0.0
0.05 0.0 0.0
0.06 0.0 0.0
0.07 0.0 0.0
0.08 0.0 0.0
0.09 0.0 0.0
0.1 0.0 0.0
0.11 0.0 0.0
0.12 0.0 0.0
0.13 0.0 0.0
0.14 0.0 0.0
0.15 0.0 0.0
0.16 0.0 0.0
0.17 0.0 0.0
0.18 0.0 0.0
0.19 0.0 0.0
0.2 0.0 0.0
0.21 0.0 0.0
0.22 0.0 0.0
0.23 0.0 0.0
0.24 0.0 0.0
0.25 0.0 0.0
0.26 0.0 0.0
0.27 0.0 0.0
0.28 0.0 0.0
0.29 0.0 0.0
0.3 0.0 0.0
0.31 0.0 0.0
0.32 0.0 0.0
0.33 0.0 0.0
0.34 0.0 0.0
0.35000000000000003 0.0 0.0
0.36 0.0 0.0
0.37 0.0 0.0
0.38 0.0 0.0
0.39 0.0 0.0
0.4 0.0 0.0
0.41000000000000003 0.0 0.0
0.42 0.0 0.0
0.43 0.0 0.0
0.44 0.0 0.0
0.45 0.0 0.0
0.46 0.0 0.0
0.47000000000000003 0.0 0.0
0.48 0.0 0.0
0.49 0.0 0.0
0.5 0.0 0.0
0.51 0.0 0.0
0.52 0.0 0.0
0.53 0.0 0.0
0.54 0.0 0.0
0.55 0.0 0.0
0.56 0.0 0.0
0.5700000000000001 0.0 0.0
0.58 0.0 0.0
0.59 0.0 0.0
0.6 0.0 0.0
0.61 0.0 0.0
0.62 0.0 0.0
0.63 0.0 0.0
0.64 0.0 0.0
0.65 0.0 0.0
0.66 0.0 0.0
0.67 0.0 0.0
0.68 0.0 0.0
0.6900000000000001 0.0 0.0
0.7000000000000001 0.0 0.0
0.71 0.0 0.0
0.72 0.0 0.0
0.73 0.0 0.0
0.74 0.0 0.0
0.75 0.0 0.0
0.76 0.0 0.0
0.77 0.0 0.0
0.78 0.0 0.0
0.79 0.0 0.0
0.8 0.0 0.0
0.81 0.0 0.0
0.8200000000000001 0.0 0.0
0.8300000000000001 0.0 0.0
0.84 0.0 0.0
0.85 0.0 0.0
0.86 0.0 0.0
0.87 0.0 0.0
0.88 0.0 0.0
0.89 0.0 0.0
0.9 0.0 0.0
0.91 0.0 0.0
0.92 0.0 0.0
0.93 0.0 0.0
0.9400000000000001 0.0 0.0
0.9500000000000001 0.0 0.0
0.96 0.0 0.0
0.97 0.0 0.0
0.98 0.0 0.0
0.99 0.0 0.0
1.0 0.0 0.0
0.0 0.01 0.0
0.01 0.01 0.0
0.02 0.01 0.0
0.03 0.01 0.0
0.04 0.01 0.0
0.05 0.01 0.0
0.06 0.01 0.0
0.07 0.01 0.0
0.08 0.01 0.0
0.09 0.01 0.0
0.1 0.01 0.0
0.11 0.01 0.0
0.12 0.01 0.0
0.13 0.01 0.0
0.14 0.01 0.0
0.15 0.01 0.0
0.16 0.01 0.0
0.17 0.01 0.0
0.18 0.01 0.0
0.19 0.01 0.0
0.2 0.01 0.0
0.21 0.01 0.0
0.22 0.01 0.0
0.23 0.01 0.0
0.24 0.01 0.0
0.25 0.01 0.0
0.26 0.01 0.0
0.27 0.01 0.0
0.28 0.01 0.0
0.29 0.01 0.0
0.3 0.01 0.0
0.31 0.01 0.0
0.32 0.01 0.0
0.33 0.01 0.0
0.34 0.01 0.0
0.35000000000000003 0.01 0.0
0.36 0.01 0.0
0.37 0.01 0.0
0.38 0.01 0.0
0.39 0.01 0.0
0.4 0.01 0.0
0.41000000000000003 0.01 0.0
0.42 0.01 0.0
0.43 0.01 0.0
0.44 0.01 0.0
0.45 0.01 0.0
0.46 0.01 0.0
0.47000000000000003 0.01 0.0
0.48 0.01 0.0
0.49 0.01 0.0
0.5 0.01 0.0
0.51 0.01 0.0
0.52 0.01 0.0
0.53 0.01 0.0
0.54 0.01 0.0
0.55 0.01 0.0
0.56 0.01 0.0
0.5700000000000001 0.01 0.0
0.58 0.01 0.0
0.59 0.01 0.0
0.6 0.01 0.0
0.61 0.01 0.0
0.62 0.01 0.0
0.63 0.01 0.0
0.64 0.01 0.0
0.65 0.01 0.0
0.66 0.01 0.0
0.67 0.01 0.0
0.68 0.01 0.0
0.6900000000000001 0.01 0.0
0.7000000000000001 0.01 0.0
0.71 0.01 0.0
0.72 0.01 0.0
0.73 0.01 0.0
0.74 0.01 0.0
0.75 0.01 0.0
0.76 0.01 0.0
0.77 0.01 0.0
0.78 0.01 0.0
0.79 0.01 0.0
0.8 0.01 0.0
0.81 0.01 0.0
0.8200000000000001 0.01 0.0
0.8300000000000001 0.01 0.0
0.84 0.01 0.0
0.85 0.01 0.0
0.86 0.01 0.0
0.87 0.01 0.0
0.88 0.01 0.0
0.89 0.01 0.0
0.9 0.01 0.0
0.91 0.01 0.0
0.92 0.01 0.0
0.93 0.01 0.0
0.9400000000000001 0.01 0.0
0.9500000000000001 0.01 0.0
0.96 0.01 0.0
0.97 0.01 0.0
0.98 0.01 0.0
0.99 0.01 0.0
1.0 0.01 0.0
0.0 0.02 0.0
0.01 0.02 0.0
0.02 0.02 0.0
0.03 0.02 0.0
0.04 0.02 0.0
0.05 0.02 0.0
0.06 0.02 0.0
0.07 0.02 0.0
0.08 0.02 0.0
0.09 0.02 0.0
0.1 0.02 0.0
0.11 0.02 0.0
0.12 0.02 0.0
0.13 0.02 0.0
0.14 0.02 0.0
0.15 0.02 0.0
0.16 0.02 0.0
0.17 0.02 0.0
0.18 0.02 0.0
0.19 0.02 0.0
0.2 0.02 0.0
0.21 0.02 0.0
0.22 0.02 0.0
0.23 0.02 0.0
0.24 0.02 0.0
0.25 0.02 0.0
0.26 0.02 0.0
0.27 0.02 0.0
0.28 0.02 0.0
0.29 0.02 0.0
0.3 0.02 0.0
0.31 0.02 0.0
0.32 0.02 0.0
0.33 0.02 0.0
0.34 0.02 0.0
0.35000000000000003 0.02 0.0
0.36 0.02 0.0
0.37 0.02 0.0
0.38 0.02 0.0
0.39 0.02 0.0
0.4 0.02 0.0
0.41000000000000003 0.02 0.0
0.42 0.02 0.0
0.43 0.02 0.0
0.44 0.02 0.0
0.45 0.02 0.0
0.46 0.02 0.0
0.47000000000000003 0.02 0.0
0.48 0.02 0.0
0.49 0.02 0.0
0.5 0.02 0.0
0.51 0.02 0.0
0.52 0.02 0.0
0.53 0.02 0.0
0.54 0.02 0.0
0.55 0.02 0.0
0.56 0.02 0.0
0.5700000000000001 0.02 0.0
0.58 0.02 0.0
0.59 0.02 0.0
0.6 0.02 0.0
0.61 0.02 0.0
0.62 0.02 0.0
0.63 0.02 0.0
0.64 0.02 0.0
0.65 0.02 0.0
0.66 0.02 0.0
0.67 0.02 0.0
0.68 0.02 0.0
0.6900000000000001 0.02 0.0
0.7000000000000001 0.02 0.0
0.71 0.02 0.0
0.72 0.02 0.0
0.73 0.02 0.0
0.74 0.02 0.0
0.75 0.02 0.0
0.76 0.02 0.0
0.77 0.02 0.0
0.78 0.02 0.0
0.79 0.02 0.0
0.8 0.02 0.0
0.81 0.02 0.0
0.8200000000000001 0.02 0.0
0.8300000000000001 0.02 0.0
0.84 0.02 0.0
0.85 0.02 0.0
0.86 0.02 0.0
0.87 0.02 0.0
0.88 0.02 0.0
0.89 0.02 0.0
0.9 0.02 0.0
0.91 0.02 0.0
0.92 0.02 0.0
0.93 0.02 0.0
0.9400000000000001 0.02 0.0
0.9500000000000001 0.02 0.0
0.96 0.02 0.0
0.97 0.02 0.0
0.98 0.02 0.0
0.99 0.02 0.0
1.0 0.02 0.0
0.0 0.03 0.0
0.01 0.03 0.0
0.02 0.03 0.0
0.03 0.03 0.0
0.04 0.03 0.0
0.05 0.03 0.0
0.06 0.03 0.0
0.07 0.03 0.0
0.08 0.03 0.0
0.09 0.03 0.0
0.1 0.03 0.0
0.11 0.03 0.0
0.12 0.03 0.0
0.13 0.03 0.0
0.14 0.03 0.0
0.15 0.03 0.0
0.16 0.03 0.0
0.17 0.03 0.0
0.18 0.03 0.0
0.19 0.03 0.0
0.2 0.03 0.0
0.21 0.03 0.0
0.22 0.03 0.0
0.23 0.03 0.0
0.24 0.03 0.0
0.25 0.03 0.0
0.26 0.03 0.0
0.27 0.03 0.0
0.28 0.03 0.0
0.29 0.03 0.0
0.3 0.03 0.0
0.31 0.03 0.0
0.32 0.03 0.0
0.33 0.03 0.0
0.34 0.03 0.0
0.35000000000000003 0.03 0.0
0.36 0.03 0.0
0.37 0.03 0.0
0.38 0.03 0.0
0.39 0.03 0.0
0.4 0.03 0.0
0.41000000000000003 0.03 0.0
0.42 0.03 0.0
0.43 0.03 0.0
0.44 0.03 0.0
0.45 0.03 0.0
0.46 0.03 0.0
0.47000000000000003 0.03 0.0
0.48 0.03 0.0
0.49 0.03 0.0
0.5 0.03 0.0
0.51 0.03 0.0
0.52 0.03 0.0
0.53 0.03 0.0
0.54 0.03 0.0
0.55 0.03 0.0
0.56 0.03 0.0
0.5700000000000001 0.03 0.0
0.58 0.03 0.0
0.59 0.03 0.0
0.6 0.03 0.0
0.61 0.03 0.0
0.62 0.03 0.0
0.63 0.03 0.0
0.64 0.03 0.0
0.65 0.03 0.0
0.66 0.03 0.0
0.67 0.03 0.0
0.68 0.03 0.0
0.6900000000000001 0.03 0.0
0.7000000000000001 0.03 0.0
0.71 0.03 0.0
0.72 0.03 0.0
0.73 0.03 0.0
0.74 0.03 0.0
0.75 0.03 0.0
0.76 0.03 0.0
0.77 0.03 0.0
0.78 0.03 0.0
0.79 0.03 0.0
0.8 0.03 0.0
0.81 0.03 0.0
0.8200000000000001 0.03 0.0
0.8300000000000001 0.03 0.0
0.84 0.03 0.0
0.85 0.03 0.0
0.86 0.03 0.0
0.87 0.03 0.0
0.88 0.03 0.0
0.89 0.03 0.0
0.9 0.03 0.0
0.91 0.03 0.0
0.92 0.03 0.0
0.93 0.03 0.0
0.9400000000000001 0.03 0.0
0.9500000000000001 0.03 0.0
0.96 0.03 0.0
0.97 0.03 0.0
0.98 0.03 0.0
0.99 0.03 0.0
1.0 0.03 0.0
0.0 0.04 0.0
0.01 0.04 0.0
0.02 0.04 0.0
0.03 0.04 0.0
0.04 0.04 0.0
0.05 0.04 0.0
0.06 0.04 0.0
0.07 0.04 0.0
0.08 0.04 0.0
0.09 0.04 0.0
0.1 0.04 0.0
0.11 0.04 0.0
0.12 0.04 0.0
0.13 0.04 0.0
0.14 0.04 0.0
0.15 0.04 0.0
0.16 0.04 0.0
0.17 0.04 0.0
0.18 0.04 0.0
0.19 0.04 0.0
0.2 0.04 0.0
0.21 0.04 0.0
0.22 0.04 0.0
0.23 0.04 0.0
0.24 0.04 0.0
0.25 0.04 0.0
0.26 0.04 0.0
0.27 0.04 0.0
0.28 0.04 0.0
0.29 0.04 0.0
0.3 0.04 0.0
0.31 0.04 0.0
0.32 0.04 0.0
0.33 0.04 0.0
0.34 0.04 0.0
0.35000000000000003 0.04 0.0
0.36 0.04 0.0
0.37 0.04 0.0
0.38 0.04 0.0
0.39 0.04 0.0
0.4 0.04 0.0
0.41000000000000003 0.04 0.0
0.42 0.04 0.0
0.43 0.04 0.0
0.44 0.04 0.0
0.45 0.04 0.0
0.46 0.04 0.0
0.47000000000000003 0.04 0.0
0.48 0.04 0.0
0.49 0.04 0.0
0.5 0.04 0.0
0.51 0.04 0.0
0.52 0.04 0.0
0.53 0.04 0.0
0.54 0.04 0.0
0.55 0.04 0.0
0.56 0.04 0.0
0.5700000000000001 0.04 0.0
0.58 0.04 0.0
0.59 0.04 0.0
0.6 0.04 0.0
0.61 0.04 0.0
0.62 0.04 0.0
0.63 0.04 0.0
0.64 0.04 0.0
0.65 0.04 0.0
0.66 0.04 0.0
0.67 0.04 0.0
0.68 0.04 0.0
0.6900000000000001 0.04 0.0
0.7000000000000001 0.04 0.0
0.71 0.04 0.0
0.72 0.04 0.0
0.73 0.04 0.0
0.74 0.04 0.0
0.75 0.04 0.0
0.76 0.04 0.0
0.77 0.04 0.0
0.78 0.04 0.0
0.79 0.04 0.0
0.8 0.04 0.0
0.81 0.04 0.0
0.8200000000000001 0.04 0.0
0.8300000000000001 0.04 0.0
0.84 0.04 0.0
0.85 0.04 0.0
0.86 0.04 0.0
0.87 0.04 0.0
0.88 0.04 0.0
0.89 0.04 0.0
0.9 0.04 0.0
0.91 0.04 0.0
0.92 0.04 0.0
0.93 0.04 0.0
0.9400000000000001 0.04 0.0
0.9500000000000001 0.04 0.0
0.96 0.04 0.0
0.97 0.04 0.0
0.98 0.04 0.0
0.99 0.04 0.0
1.0 0.04 0.0
0.0 0.05 0.0
0.01 0.05 0.0
0.02 0.05 0.0
0.03 0.05 0.0
0.04 0.05 0.0
0.05 0.05 0.0
0.06 0.05 0.0
0.07 0.05 0.0
0.08 0.05 0.0
0.09 0.05 0.0
0.1 0.05 0.0
0.11 0.05 0.0
0.12 0.05 0.0
0.13 0.05 0.0
0.14 0.05 0.0
0.15 0.05 0.0
0.16 0.05 0.0
0.17 0.05 0.0
0.18 0.05 0.0
0.19 0.05 0.0
0.2 0.05 0.0
0.21 0.05 0.0
0.22 0.05 0.0
0.23 0.05 0.0
0.24 0.05 0.0
0.25 0.05 0.0
0.26 0.05 0.0
0.27 0.05 0.0
0.28 0.05 0.0
0.29 0.05 0.0
0.3 0.05 0.0
0.31 0.05 0.0
0.32 0.05 0.0
0.33 0.05 0.0
0.34 0.05 0.0
0.35000000000000003 0.05 0.0
0.36 0.05 0.0
0.37 0.05 0.0
0.38 0.05 0.0
0.39 0.05 0.0
0.4 0.05 0.0
0.41000000000000003 0.05 0.0
0.42 0.05 0.0
0.43 0.05 0.0
0.44 0.05 0.0
0.45 0.05 0.0
0.46 0.05 0.0
0.47000000000000003 0.05 0.0
0.48 0.05 0.0
0.49 0.05 0.0
0.5 0.05 0.0
0.51 0.05 0.0
0.52 0.05 0.0
0.53 0.05 0.0
0.54 0.05 0.0
0.55 0.05 0.0
0.56 0.05 0.0
0.5700000000000001 0.05 0.0
0.58 0.05 0.0
0.59 0.05 0.0
0.6 0.05 0.0
0.61 0.05 0.0
0.62 0.05 0.0
0.63 0.05 0.0
0.64 0.05 0.0
0.65 0.05 0.0
0.66 0.05 0.0
0.67 0.05 0.0
0.68 0.05 0.0
0.6900000000000001 0.05 0.0
0.7000000000000001 0.05 0.0
0.71 0.05 0.0
0.72 0.05 0.0
0.73 0.05 0.0
0.74 0.05 0.0
0.75 0.05 0.0
0.76 0.05 0.0
0.77 0.05 0.0
0.78 0.05 0.0
0.79 0.05 0.0
0.8 0.05 0.0
0.81 0.05 0.0
0.8200000000000001 0.05 0.0
0.8300000000000001 0.05 0.0
0.84 0.05 0.0
0.85 0.05 0.0
0.86 0.05 0.0
0.87 0.05 0.0
0.88 0.05 0.0
0.89 0.05 0.0
0.9 0.05 0.0
0.91 0.05 0.0
0.92 0.05 0.0
0.93 0.05 0.0
0.9400000000000001 0.05 0.0
0.9500000000000001 0.05 0.0
0.96 0.05 0.0
0.97 0.05 0.0
0.98 0.05 0.0
0.99 0.05 0.0
1.0 0.05 0.0
0.0 0.06 0.0
0.01 0.06 0.0
0.02 0.06 0.0
0.03 0.06 0.0
0.04 0.06 0.0
0.05 0.06 0.0
0.06 0.06 0.0
0.07 0.06 0.0
0.08 0.06 0.0
0.09 0.06 0.0
0.1 0.06 0.0
0.11 0.06 0.0
0.12 0.06 0.0
0.13 0.06 0.0
0.14 0.06 0.0
0.15 0.06 0.0
0.16 0.06 0.0
0.17 0.06 0.0
0.18 0.06 0.0
0.19 0.06 0.0
0.2 0.06 0.0
0.21 0.06 0.0
0.22 0.06 0.0
0.23 0.06 0.0
0.24 0.06 0.0
0.25 0.06 0.0
0.26 0.06 0.0
0.27 0.06 0.0
0.28 0.06 0.0
0.29 0.06 0.0
0.3 0.06 0.0
0.31 0.06 0.0
0.32 0.06 0.0
0.33 0.06 0.0
0.34 0.06 0.0
0.35000000000000003 0.06 0.0
0.36 0.06 0.0
0.37 0.06 0.0
0.38 0.06 0.0
0.39 0.06 0.0
0.4 0.06 0.0
0.41000000000000003 0.06 0.0
0.42 0.06 0.0
0.43 0.06 0.0
0.44 0.06 0.0
0.45 0.06 0.0
0.46 0.06 0.0
[...]
POINT_DATA  10201
FIELD  FlowField  5
Density    1 10201  double
7.6827292045131
7.630137809415077
7.504319744634472
7.3472520220767485
7.1724434857416455
6.987936501462854
6.805994452064759
6.644418431939125
6.522772323977568
6.454967465599321
6.440961938851354
6.461490881607205
6.4782567790623204
6.439890429158478
6.2953228936656895
6.016676022633726
5.621929125614722
5.172657499762918
4.740493914465991
4.372719046368836
4.083290139113359
3.864478077358324
3.7017572341825726
3.5819273181110507
3.495081404282642
3.4342335237733987
3.394580002301936
3.3729093569959248
3.3671955164630507
3.376303636555895
3.3997153905028563
3.4371431162194988
3.4878109649309694
3.5489511892953813
3.612750549484468
3.660881019637163
3.6568694556895203
3.5430729786730364
3.266303970269086
2.857220941991148
2.476121790171906
2.266086578211744
2.208447772714864
2.2159308558973905
2.2420039980920423
2.273544598255123
2.3077001204235916
2.343963117529076
2.3823314084128224
2.422921199387565
2.4658882770922794
2.5114130436130386
2.5596990548941587
2.6109748575774634
2.6654970678260606
2.7235541284742206
2.7854702223622763
2.851608501564269
2.9223724695429643
2.998204543442113
3.0795828849068245
3.167023918897108
3.261101434432326
3.362273948130774
3.470497975379912
3.585346950657551
3.7061603050385457
3.8318170132460376
3.96072292232982
4.0909350611444335
4.2203172265628055
4.346731315615733
4.4682972956076235
4.583727451643265
4.692837551522323
4.7973236509505535
4.901497724308838
5.0120813293818625
5.136219741443014
5.2781509375145905
5.436406033855757
5.603325826372661
5.767588835907204
5.918376167142676
6.048552435002508
6.155560869555297
6.240453812877922
6.3062724354637005
6.356687256761436
6.395187731092687
6.424738032824132
6.447717444553349
6.465988957273152
6.48100059079846
6.493841439978755
6.505212848034944
6.515360442222171
6.524099637448446
6.530871192869576
6.534816963185719
6.5359624264476315
7.350864620338202
7.303448662681745
7.18997503012819
7.046423738912973
6.882615300943911
6.706253670364744
6.53147218027622
6.379057338974092
6.271487729241062
6.223937842009768
6.234583370058745
6.279143312801254
6.3125662117124515
6.278025447283733
6.124232284675758
5.830084317760473
5.42278153046024
4.967981123507109
4.534734819312803
4.165782816479536
3.872556233665212
3.647286249845727
3.4764572636600106
3.3478273460078753
3.2520956037309547
3.182574733876184
3.1345556790025184
3.104796378236365
3.0911624102429274
3.0923614433563804
3.107693420705546
3.136709371881719
3.178570920365276
3.2307418284690974
3.2864205127523567
3.329984769259096
3.3305938733120923
3.239046963663377
3.006728042166587
2.6509983373420294
2.305185148805665
2.105391769069933
2.0484879625200554
2.056812461808958
2.0844465172303934
2.117840842394229
2.1540081137807405
2.192405234527208
2.2330123148213468
2.2759279453955896
2.321286727211629
2.369243633797356
2.419972850552914
2.473670726387512
2.530561011333332
2.590902122881711
2.6549961799511497
2.723199043004393
2.7959298625195395
2.8736779459701207
2.9570048310718855
3.046541489051416
3.1429803595105597
3.246946892669838
3.3587376562647697
3.478304061956739
3.6052237574600774
3.7384152170460783
3.876130938330454
4.016146925962218
4.155928017089327
4.292905807627827
4.424866721657894
4.550407616597646
4.6694843832961865
4.784045668217912
4.89844614230187
5.018890770057112
5.151381189310002
5.298791835488853
5.458711309309673
5.623483969376025
5.782751657096953
5.927093307909901
6.050627150751045
6.151601592450356
6.231427901426269
6.293209830032075
6.340535513661162
6.376765291548146
6.404734949646161
6.426711249145186
6.4444607514513335
6.459348416478931
6.47239550954489
6.484245312759452
6.495076460111224
6.504605278052853
6.512139762696965
6.5166605306824055
6.518024207527661
6.602423532176395
6.560498375713495
6.462027531215217
6.337525225480546
6.191043054753499
6.029624303372375
5.87162640328343
5.7447396101684
5.677526768561864
5.685718681224496
5.758903943812848
5.856405199122368
5.916626158874534
5.876046702158358
5.6922201994615715
5.364270194670353
4.93708654119225
4.479839910443367
4.053288170165246
3.6904469617068196
3.39811849178521
3.1688710849334703
2.9914164921477346
2.8554389272987857
2.7527376348008583
2.6770809184020705
2.623830305332093
2.5896112844664025
2.5720547108470737
2.5695805610257074
2.5811768344237978
2.6060889395222233
2.6432618948732483
2.6903114480453967
2.7416734268803093
2.785493318766593
2.799313673247771
2.7470256812339033
2.5877312133109536
2.319095429307378
2.0323359513685935
1.8516959681995737
1.7984630153696983
1.8106401668213858
1.8433298447551172
1.8822995845963737
1.924367431973964
1.9689431076690298
2.0159766450132213
2.065527187424972
2.1176744454901786
2.1725006635751836
2.230088327342886
2.290523420890576
2.353903123121686
2.4203485555465845
2.490023178976236
2.5631566990098804
2.6400729928584354
2.721218602822821
2.80718580326023
2.8987211626064333
2.99670629896773
3.1020897053993606
3.2157575453666594
3.3383577235803825
3.470063360667874
3.610257925420747
3.7574323054729892
3.909299211917417
4.062990003855351
4.215476795750491
4.364162278602068
4.507510763587188
4.6455894432658695
4.78035500465349
4.915435605441645
5.055085240614094
5.2023518690750095
5.357211958927151
5.51572982612706
5.670908482563487
5.81493110096986
5.941595056486942
6.047735514353109
6.133261949286173
6.2002608762337355
6.251875910217053
6.291434984858601
6.321951453035377
6.345928344894549
6.365345027821615
6.381725462745666
6.396228295834348
6.409708804343188
6.422674922329832
6.4351543790909815
6.4466308328575606
6.456079223740346
6.46205921650482
6.463980300705202
5.811938509142513
5.763944903184956
5.6561041879442655
5.528671057462382
5.3856885208549965
5.2346779821167955
5.09892105929493
5.013172881062864
5.009115415721929
5.0945382099892615
5.23865178869731
5.3770954044553
5.436059902682365
5.360065945765083
5.130675215647979
4.772036109135202
4.3402612417547495
3.8994857494366455
3.4984375352043804
3.160735443891708
2.889575502482387
2.678020419759889
2.5165704479833315
2.396215431657754
2.3092897108744856
2.2496157087882884
2.2123999979464144
2.194056560083691
2.192006363273477
2.2044631109161514
2.2301870986745347
2.2681384828878826
2.316928902503114
2.3739376621414365
2.433881106641223
2.4866189636062757
2.5140871788488037
2.4870522998276985
2.3686121048683386
2.147004984358377
1.8934915286306588
1.7269348735113808
1.6802468490108387
1.6987873131338171
1.738308419414619
1.7845134566298384
1.8342693520171347
1.8870217274673842
1.9427291125128068
2.0014348259457337
2.0631772572257905
2.127967989040689
2.1957849686856146
2.2665717203822484
2.340242495606435
2.4166950575612276
2.4958328712552995
2.577597696585165
2.662012001248163
2.74922824641125
2.8395792244200555
2.933618986477095
3.0321385475938247
3.1361373588051125
3.2467295022852314
3.3649711634130215
3.491617272463553
3.6268448740674195
3.770022970279638
3.9196334501965966
4.0734281645888055
4.228836003058599
4.383540533827598
4.536064743755896
4.686152969162482
4.834756283243722
4.983506610457577
5.13373279449263
5.285337380891908
5.436068090464678
5.581650902301479
5.7168438565742985
5.836942984199046
5.939020333663858
6.022398498253582
6.088352437548449
6.13938757251266
6.178489258505288
6.208574399292455
6.23219247837294
6.251421965911713
6.267883730846169
6.282806402004766
6.297103825409852
6.3114368983986235
6.32616200315546
6.34113841254093
6.355558125450062
6.367915169684893
6.376113979134994
6.3788804413681355
5.127761294627088
5.062424808257383
4.9203860831698325
4.766889894898717
4.614328317226457
4.473237584904666
4.371280676323603
4.34547991273335
4.419891789226405
4.580613947827783
4.769127519171431
4.905077609897695
4.921615336610774
4.788218000231612
4.514561080505786
4.141980585929233
3.7273544143918036
3.324083492330841
2.968298874890698
2.6757020365952506
2.4468195636383343
2.274581788254817
2.149829023677702
2.063725913886729
2.0085306449244147
1.9779220367536952
1.9670181430412634
1.9722219987708982
1.9909897575860274
2.021565527493539
2.062684557710693
2.113202740847146
2.1715806002894027
2.235151646863628
2.299081510633215
2.3548121362243934
2.387378435832549
2.3710394914891886
2.26969084446287
2.066875102790525
1.8278118236353178
1.6709346921413286
1.6314856322163316
1.655895016141363
1.7008422638537555
1.7527732043471684
1.8088787560566324
1.8687396101104492
1.9323869651118561
1.9999093078496513
2.0713669836202664
2.1467659053945605
2.226043770728919
2.309061662936813
2.3956019518153315
2.485375220948768
2.5780391388651323
2.6732314048705397
2.770617072190063
2.8699476310022107
2.9711254916878302
3.0742636985769716
3.1797275811404484
3.288142894275424
3.4003546060180634
3.5173242970020677
3.6399654858421577
3.7689242798800286
3.9043363645017393
4.04566836347834
4.191744858689072
4.34096529949481
4.491659176634295
4.642449329140686
4.792449117405565
4.941175136056174
5.088169988614669
5.232478297653081
5.372235147723684
5.504626782897115
5.626327465704249
5.734267767006379
5.826402812599883
5.9021570159404035
5.9624134646439355
6.009143954953164
6.044894443715627
6.072319280175686
6.093862893040695
6.111598656955798
6.127187159529823
6.141905038169662
6.156703108033657
6.172267348632498
6.189071009852148
6.2073117421912505
6.226646466123991
6.2458809359265235
6.262819022172213
6.274400017839544
6.278424413150784
4.558563720671094
4.468764471748996
4.27812331664151
4.088756033343178
3.9279187070994874
3.8098333818148475
3.761552222094902
3.810992392459107
3.959942791820767
4.164895448469232
4.348138594987971
4.434503773156595
4.382506818040903
4.191143261952906
3.890390557661547
3.5274388001763177
3.1524017248008964
2.805808278405079
2.5119377314499616
2.279397834200271
2.105987231175985
1.9838799755171639
1.9034929051398122
1.8557634009944164
1.833042365114204
1.8293362020479502
1.8402371819460677
1.8626737793802026
1.894596143157695
1.9346536945370543
1.9818702563881723
2.0352879521650484
2.093535527742132
2.154294858659588
2.2136083386628913
2.264668447417535
2.294933578338798
2.2805865477770935
2.185447230693661
1.9910924139547919
1.7615524593371852
1.6141867417416595
1.5816350154536605
1.609863348083973
1.657483967965505
1.7122285527021344
1.7717533302909683
1.835829426078383
1.904609858929501
1.978285549568019
2.0570064988173637
2.1408510551576674
2.22980417570342
2.323739494929319
2.4224070281500723
2.525430198817957
2.632316296838099
2.742483815656316
2.8553081562681806
2.970183742357744
3.0865958055113403
3.2041914458373615
3.3228374318074674
3.4426500285484916
3.5639846109119144
3.687377489931445
3.813438625828767
3.9427087902557165
4.07550585826058
4.211791055183175
4.351092616405727
4.49251079599458
4.634835505867617
4.776719949004647
4.916788491066118
5.053628905569443
5.185685449857296
5.311143037155909
5.42792466701545
5.5338805284847155
5.627144962088839
5.706535450385313
5.771832180788732
5.82383121892279
5.86417002605237
5.8950126256603275
5.9187099817274875
5.937523688003085
5.95345083914402
5.96814546746345
5.982910398758769
5.998728714931012
6.016307511740154
6.036116111961532
6.058422109173386
6.083209039477446
6.1098246248922585
6.136520131121477
6.160167650103486
6.176469493101426
6.182191244430486
4.0798745351494174
3.9626536689228056
3.7213848352876253
3.5036842533176316
3.351891819750925
3.2783889239499975
3.2992131645484895
3.420103773135149
3.613017347455915
3.812533052926473
3.9429905429798824
3.9537020703237085
3.8334519318745195
3.6030426337860217
3.301152221497152
2.9718735314715947
2.6545820815864682
2.377054045953187
2.153312098056339
1.9857621855768866
1.8693050708893524
1.795228646754456
1.7540032406412962
1.7370734016294354
1.7376936919686683
1.750978888195014
1.7736282123981755
1.8035451668452156
1.839460164595479
1.8805920212056302
1.9263421090226813
1.9759965993232878
2.0284193704541007
2.081722150962528
2.1328020685101046
2.176189521791148
2.200793755877974
2.18376663935782
2.08928099761875
1.8995595231974571
1.679302128829914
1.5423196215631778
1.5157228953297284
1.5453250351422267
1.5926584284266514
1.6469965198817604
1.7064883780770306
1.7711054379920788
1.8411433610627288
1.9169299184730617
1.9987537903540427
2.086830419668505
2.181272836685439
2.282063736751935
2.3890311770553887
2.5018322342527726
2.6199497842677926
2.742707349568269
2.8693053443720813
2.9988787926694136
3.1305719036077275
3.2636195799734464
3.3974213186024986
3.5315908083377665
3.6659664178913745
3.8005736562322827
3.935540293594231
4.070989443138192
4.206944565901513
4.343237088459503
4.479422473492458
4.6147431152453855
4.748142578257781
4.878317037349415
5.00378950892751
5.12298651774064
5.234304718306206
5.336189577068971
5.42725984335504
5.506482380783405
5.573360799248595
5.628073935146193
5.671507311489261
5.7051593592310565
5.730950470064874
5.750991644007549
5.767370482586552
5.781992381148314
5.796487608924009
5.8121738723506375
5.8300585542075805
5.850863002131634
5.875049065926699
5.902831520199278
5.934200954077094
5.96881261810179
6.00554357315085
6.041932256312993
6.073805634237379
6.0956032072890824
6.10322914387509
3.6752862459875653
3.5326680531724812
3.2510342623281874
3.02499150577445
2.90446537938398
2.88980862193908
2.9756049668533544
3.1396105219934944
3.3305233840610793
3.480303809185143
3.534157348416651
3.4712565909430873
3.3034071049948217
3.0618182388727324
2.7844328966880867
2.50695843201198
2.256948706084345
2.050936848825461
1.8947436202981975
1.7860619587382085
1.7178167610287338
1.6811382975015392
1.6674863966081117
1.6698544973535978
1.6831567636329323
1.7040531577648619
1.7305274586936166
1.761449672016552
1.7962097628416551
1.8344285805742941
1.8757206445199774
1.919487568592975
1.9647372049540186
2.0099077420209985
2.0524984803084876
2.0877989333806806
2.105338510868741
2.082724537818267
1.9852105761436767
1.797795686856714
1.5870378762995654
1.461057368381475
1.439368907487947
1.4681771668311525
1.5126473993939273
1.56367997106967
1.6198825340933967
1.681400594527494
1.7486603263651752
1.8221276943999165
1.902246631160824
1.989404306568814
2.083897384872147
2.1858963130923996
2.2954098817433284
2.412254384879053
2.53603298486359
2.6661313264457043
2.8017345694328952
2.9418684143775744
3.0854623719481182
3.2314280990819477
3.3787403607247533
3.5265048216553057
3.6739971652200007
3.8206626070136704
3.966073057896707
4.109849834756616
4.251569098863421
4.390672905770509
4.526414636651395
4.657859940798149
4.783908183516378
4.9033279276096176
5.014831392845597
5.117171700861969
5.209252073710205
5.290241039948622
5.359686236695357
5.417608466327696
5.464555159476049
5.501596759893459
5.530255705087592
5.552376859422879
5.569965314869103
5.585023926432184
5.599418199339737
5.61478425139706
5.6324757720173295
5.653537014555095
5.678701986227912
5.708408614458644
5.742810989492147
5.781794968515334
5.825005824837619
5.871682804306493
5.920135868449876
5.967142084177611
6.007540184268695
6.034730839189029
6.044149665057042
3.33987874987114
3.1781812847051
2.873481133634714
2.659842822421067
2.5836923694996132
2.624344052350523
2.750712767816756
2.9179896103264715
3.067843549291357
3.146931097992953
3.12746595404008
3.0122629810477584
2.8251926385801416
2.598462293181631
2.3635485972795767
2.1459355094147834
1.9624600696809171
1.8208767513377202
1.7212713855776813
1.6585452598988164
1.625087489932363
1.6129887702157557
1.615483320257163
1.6275764455734858
1.6460099882745571
1.6688738042441937
1.6951571499760365
1.724370185756738
1.7562606478360232
1.7906085179072466
1.827071226557816
1.8650647990774687
1.9036789921841595
1.9415759269514898
1.9765969657512694
2.0043146093411766
2.0143109099607277
1.9843355501960134
1.881139548626254
1.6940740429015686
1.492866356722875
1.3784387481988098
1.3609989389207486
1.3875744313110001
1.4274397062948005
1.4731178083060144
1.5236117149413333
1.579189545104551
1.640365172429647
1.707707456946339
1.7817903497447025
1.8631618034112616
1.9523104117693626
2.049626961702624
2.1553623158380892
2.2695850664443675
2.392144012457741
2.52264164225876
2.6604249650281524
2.804598705575916
2.9540627942981583
3.1075714873225495
3.2638062242543935
3.4214499174596096
3.57924843481798
3.736046723657853
3.8907924421829527
4.042508397418087
4.190243819659384
4.333021242939719
4.469799093791657
4.599465386279102
4.720869240352048
4.8328892752846455
4.934520927751564
5.02496633147582
5.103726046179504
5.170682894034892
5.226161537292568
5.270952123877701
5.306289801726113
5.333788491396634
5.355335812081533
5.372963629344037
5.388712857728521
5.404510628395027
5.42207296960597
5.442838378898598
5.46793092590525
5.498147173779666
5.5339552259857125
5.5754958958633365
5.622586685603302
5.674748408785237
5.731239202195282
5.790823756318464
5.851213464075688
5.908478767878
5.956657127387217
5.988482135590427
5.999369746771974
3.0702488168305804
2.896948032548319
2.5855184389621004
2.3970112652643754
2.3643403392762883
2.44190091955753
2.5770030137734627
2.7149426615982244
2.805466791420008
2.816957985276219
2.744330434072309
2.6040908844226873
2.4229487419405746
2.2283570753568935
2.043224766513675
1.8835424751351477
1.757808393773817
1.6678051907133389
1.6103192964949118
1.5792774098808335
1.56777775784073
1.5696050942422202
1.5800274091565951
1.5959263377422892
1.6155035247391605
1.637846285865611
1.6625422121647275
1.6894087742302115
1.7183144902228409
1.7490511188047788
1.7812434922667872
1.81429462481449
1.847356989274601
1.8792407445412995
1.907928251107284
1.92894023655081
1.9315249642625276
1.8932384601797079
1.7823929784616834
1.594093901949618
1.4027080529616012
1.300624315037549
1.2872842898750987
1.3110244970488176
1.3455378260314528
1.384903478414585
1.4284448617891714
1.4764909954497554
1.5295836517595607
1.588334084956225
1.6533867667004383
1.7253956847738576
1.804996542779069
1.8927719083792942
1.9892095055175374
2.094655513609889
2.209266353593952
2.332964001358984
2.4654009935035033
2.6059414743660545
2.753663431056404
2.9073844992991402
3.0657096815083014
3.227094825578635
3.389916035108387
3.5525336338927818
3.7133407826768736
3.8707915118091822
4.023409450898396
4.169785098441757
4.308574275477512
4.438509998807686
4.558435767382543
4.667362215466389
4.7645400556472115
4.849536757876723
4.922304021056686
4.983223486459941
5.033120766121486
5.073246711948865
5.105224500180605
5.130962090109177
5.152540398843033
5.172090820114791
5.191675750592583
5.21318334414875
5.238243083022931
5.26816350466543
5.303895738661343
5.34602304127188
5.3947576055962045
5.449938602416305
5.511041442956808
5.577215709736767
5.647304148778961
5.719555746529654
5.791105091253414
5.857457056475582
5.9121259414195295
5.94758423105477
5.959569622567709
2.8586129726977383
2.6798850859558074
2.3726678209092174
2.2120892700651367
2.2116294703712827
2.3031076414513296
2.4213550815407006
2.5141038048652136
2.546769631004552
2.5077421341525956
2.4065208572017167
2.2645121427700103
2.105524322974566
1.950051449410818
1.8128886399955109
1.7025938255873376
1.6219965551209226
1.5694139804019107
1.540279421604136
1.528846621530254
1.529620567443032
1.5382441116203456
1.5517727138636876
1.5684946667772106
1.5875559664208538
1.6085979080007646
1.6314901176428573
1.6561551406449038
1.682463795845227
1.7101664390010631
1.7388458588274052
1.7679027849131763
1.7965500366820866
1.8236870816797968
1.8472899122592834
1.862593141225124
1.8581869519773655
1.8110113449660532
1.6909329425335948
1.5004435023806904
1.3198264324835727
1.2311784237964065
1.222111284422605
1.2430797911529126
1.2723581743845973
1.305456439500537
1.3419434991999988
1.3821539788912165
1.4266006108701486
1.475873096375409
1.5306149526927433
1.5915086339454705
1.6592563048112132
1.7345533408601828
1.8180536794926223
1.9103272310809203
2.0118108033886855
2.1227554983422716
2.243175125110605
2.3728014893121108
2.5110530227577033
2.657022688065765
2.809489181821544
2.966952268806222
3.1276891691540047
3.289825265517745
3.451410158198153
3.6104902274066624
3.7651714435614836
3.9136705025551457
4.054357107874708
4.185792833884593
4.306772131368449
4.416368788955824
4.513986090526187