# vtk DataFile Version 3.0 
shock_diffraction_time_series_109_.vtk
ASCII
DATASET UNSTRUCTURED_GRID
POINTS         10201 double
0.0 0.0 0.0
0.01 0.0 0.0
0.02 0.0 0.0
0.03 0.0 0.0
0.04 0.0 0.0
0.05 0.0 0.0
0.06 0.0 0.0
0.07 0.0 0.0
0.08 0.0 0.0
0.09 0.0 0.0
0.1 0.0 0.0
0.11 0.0 0.0
0.12 0.0 0.0
0.13 0.0 0.0
0.14 0.0 0.0
0.15 0.0 0.0
0.16 0.0 0.0
0.17 0.0 0.0
0.18 0.0 0.0
0.19 0.0 0.0
0.2 0.0 0.0
0.21 0.0 0.0
0.22 0.0 0.0
0.23 0.0 0.0
0.24 0.0 0.0
0.25 0.0 0.0
0.26 0.0 0.0
0.27 0.0 0.0
0.28 0.0 0.0
0.29 0.0 0.0
0.3 0.0 0.0
0.31 0.0 0.0
0.32 0.0 0.0
0.33 0.0 0.0
0.34 0.0 0.0
0.35000000000000003 0.0 0.0
0.36 0.0 0.0
0.37 0.0 0.0
0.38 0.0 0.0
0.39 0.0 0.0
0.4 0.0 0.0
0.41000000000000003 0.0 0.0
0.42 0.0 0.0
0.43 0.0 0.0
0.44 0.0 0.0
0.45 0.0 0.0
0.46 0.0 0.0
0.47000000000000003 0.0 0.0
0.48 0.0 0.0
0.49 0.0 0.0
0.5 0.0 0.0
0.51 0.0 0.0
0.52 0.0 0.0
0.53 0.0 0.0
0.54 0.0 0.0
0.55 0.0 0.0
0.56 0.0 0.0
0.5700000000000001 0.0 0.0
0.58 0.0 0.0
0.59 0.0 0.0
0.6 0.0 0.0
0.61 0.0 0.0
0.62 0.0 0.0
0.63 0.0 0.0
0.64 0.0 0.0
0.65 0.0 0.0
0.66 0.0 0.0
0.67 0.0 0.0
0.68 0.0 0.0
0.6900000000000001 0.0 0.0
0.7000000000000001 0.0 0.0
0.71 0.0 0.0
0.72 0.0 0.0
0.73 0.0 0.0
0.74 0.0 0.0
0.75 0.0 0.0
0.76 0.0 0.0
0.77 0.0 0.0
0.78 0.0 0.0
0.79 0.0 0.0
0.8 0.0 0.0
0.81 0.0 0.0
0.8200000000000001 0.0 0.0
0.8300000000000001 0.0 0.0
0.84 0.0 0.0
0.85 0.0 0.0
0.86 0.0 0.0
0.87 0.0 0.0
0.88 0.0 0.0
0.89 0.0 0.0
0.9 0.0 0.0
0.91 0.0 0.0
0.92 0.0 0.0
0.93 0.0 0.0
0.9400000000000001 0.0 0.0
0.9500000000000001 0.0 0.0
0.96 0.0 0.0
0.97 0.0 0.0
0.98 0.0 0.0
0.99 0.0 0.0
1.0 0.0 0.0
0.0 0.01 0.0
0.01 0.01 0.0
0.02 0.01 0.0
0.03 0.01 0.0
0.04 0.01 0.0
0.05 0.01 0.0
0.06 0.01 0.0
0.07 0.01 0.0
0.08 0.01 0.0
0.09 0.01 0.0
0.1 0.01 0.0
0.11 0.01 0.0
0.12 0.01 0.0
0.13 0.01 0.0
0.14 0.01 0.0
0.15 0.01 0.0
0.16 0.01 0.0
0.17 0.01 0.0
0.18 0.01 0.0
0.19 0.01 0.0
0.2 0.01 0.0
0.21 0.01 0.0
0.22 0.01 0.0
0.23 0.01 0.0
0.24 0.01 0.0
0.25 0.01 0.0
0.26 0.01 0.0
0.27 0.01 0.0
0.28 0.01 0.0
0.29 0.01 0.0
0.3 0.01 0.0
0.31 0.01 0.0
0.32 0.01 0.0
0.33 0.01 0.0
0.34 0.01 0.0
0.35000000000000003 0.01 0.0
0.36 0.01 0.0
0.37 0.01 0.0
0.38 0.01 0.0
0.39 0.01 0.0
0.4 0.01 0.0
0.41000000000000003 0.01 0.0
0.42 0.01 0.0
0.43 0.01 0.0
0.44 0.01 0.0
0.45 0.01 0.0
0.46 0.01 0.0
0.47000000000000003 0.01 0.0
0.48 0.01 0.0
0.49 0.01 0.0
0.5 0.01 0.0
0.51 0.01 0.0
0.52 0.01 0.0
0.53 0.01 0.0
0.54 0.01 0.0
0.55 0.01 0.0
0.56 0.01 0.0
0.5700000000000001 0.01 0.0
0.58 0.01 0.0
0.59 0.01 0.0
0.6 0.01 0.0
0.61 0.01 0.0
0.62 0.01 0.0
0.63 0.01 0.0
0.64 0.01 0.0
0.65 0.01 0.0
0.66 0.01 0.0
0.67 0.01 0.0
0.68 0.01 0.0
0.6900000000000001 0.01 0.0
0.7000000000000001 0.01 0.0
0.71 0.01 0.0
0.72 0.01 0.0
0.73 0.01 0.0
0.74 0.01 0.0
0.75 0.01 0.0
0.76 0.01 0.0
0.77 0.01 0.0
0.78 0.01 0.0
0.79 0.01 0.0
0.8 0.01 0.0
0.81 0.01 0.0
0.8200000000000001 0.01 0.0
0.8300000000000001 0.01 0.0
0.84 0.01 0.0
0.85 0.01 0.0
0.86 0.01 0.0
0.87 0.01 0.0
0.88 0.01 0.0
0.89 0.01 0.0
0.9 0.01 0.0
0.91 0.01 0.0
0.92 0.01 0.0
0.93 0.01 0.0
0.9400000000000001 0.01 0.0
0.9500000000000001 0.01 0.0
0.96 0.01 0.0
0.97 0.01 0.0
0.98 0.01 0.0
0.99 0.01 0.0
1.0 0.01 0.0
0.0 0.02 0.0
0.01 0.02 0.0
0.02 0.02 0.0
0.03 0.02 0.0
0.04 0.02 0.0
0.05 0.02 0.0
0.06 0.02 0.0
0.07 0.02 0.0
0.08 0.02 0.0
0.09 0.02 0.0
0.1 0.02 0.0
0.11 0.02 0.0
0.12 0.02 0.0
0.13 0.02 0.0
0.14 0.02 0.0
0.15 0.02 0.0
0.16 0.02 0.0
0.17 0.02 0.0
0.18 0.02 0.0
0.19 0.02 0.0
0.2 0.02 0.0
0.21 0.02 0.0
0.22 0.02 0.0
0.23 0.02 0.0
0.24 0.02 0.0
0.25 0.02 0.0
0.26 0.02 0.0
0.27 0.02 0.0
0.28 0.02 0.0
0.29 0.02 0.0
0.3 0.02 0.0
0.31 0.02 0.0
0.32 0.02 0.0
0.33 0.02 0.0
0.34 0.02 0.0
0.35000000000000003 0.02 0.0
0.36 0.02 0.0
0.37 0.02 0.0
0.38 0.02 0.0
0.39 0.02 0.0
0.4 0.02 0.0
0.41000000000000003 0.02 0.0
0.42 0.02 0.0
0.43 0.02 0.0
0.44 0.02 0.0
0.45 0.02 0.0
0.46 0.02 0.0
0.47000000000000003 0.02 0.0
0.48 0.02 0.0
0.49 0.02 0.0
0.5 0.02 0.0
0.51 0.02 0.0
0.52 0.02 0.0
0.53 0.02 0.0
0.54 0.02 0.0
0.55 0.02 0.0
0.56 0.02 0.0
0.5700000000000001 0.02 0.0
0.58 0.02 0.0
0.59 0.02 0.0
0.6 0.02 0.0
0.61 0.02 0.0
0.62 0.02 0.0
0.63 0.02 0.0
0.64 0.02 0.0
0.65 0.02 0.0
0.66 0.02 0.0
0.67 0.02 0.0
0.68 0.02 0.0
0.6900000000000001 0.02 0.0
0.7000000000000001 0.02 0.0
0.71 0.02 0.0
0.72 0.02 0.0
0.73 0.02 0.0
0.74 0.02 0.0
0.75 0.02 0.0
0.76 0.02 0.0
0.77 0.02 0.0
0.78 0.02 0.0
0.79 0.02 0.0
0.8 0.02 0.0
0.81 0.02 0.0
0.8200000000000001 0.02 0.0
0.8300000000000001 0.02 0.0
0.84 0.02 0.0
0.85 0.02 0.0
0.86 0.02 0.0
0.87 0.02 0.0
0.88 0.02 0.0
0.89 0.02 0.0
0.9 0.02 0.0
0.91 0.02 0.0
0.92 0.02 0.0
0.93 0.02 0.0
0.9400000000000001 0.02 0.0
0.9500000000000001 0.02 0.0
0.96 0.02 0.0
0.97 0.02 0.0
0.98 0.02 0.0
0.99 0.02 0.0
1.0 0.02 0.0
0.0 0.03 0.0
0.01 0.03 0.0
0.02 0.03 0.0
0.03 0.03 0.0
0.04 0.03 0.0
0.05 0.03 0.0
0.06 0.03 0.0
0.07 0.03 0.0
0.08 0.03 0.0
0.09 0.03 0.0
0.1 0.03 0.0
0.11 0.03 0.0
0.12 0.03 0.0
0.13 0.03 0.0
0.14 0.03 0.0
0.15 0.03 0.0
0.16 0.03 0.0
0.17 0.03 0.0
0.18 0.03 0.0
0.19 0.03 0.0
0.2 0.03 0.0
0.21 0.03 0.0
0.22 0.03 0.0
0.23 0.03 0.0
0.24 0.03 0.0
0.25 0.03 0.0
0.26 0.03 0.0
0.27 0.03 0.0
0.28 0.03 0.0
0.29 0.03 0.0
0.3 0.03 0.0
0.31 0.03 0.0
0.32 0.03 0.0
0.33 0.03 0.0
0.34 0.03 0.0
0.35000000000000003 0.03 0.0
0.36 0.03 0.0
0.37 0.03 0.0
0.38 0.03 0.0
0.39 0.03 0.0
0.4 0.03 0.0
0.41000000000000003 0.03 0.0
0.42 0.03 0.0
0.43 0.03 0.0
0.44 0.03 0.0
0.45 0.03 0.0
0.46 0.03 0.0
0.47000000000000003 0.03 0.0
0.48 0.03 0.0
0.49 0.03 0.0
0.5 0.03 0.0
0.51 0.03 0.0
0.52 0.03 0.0
0.53 0.03 0.0
0.54 0.03 0.0
0.55 0.03 0.0
0.56 0.03 0.0
0.5700000000000001 0.03 0.0
0.58 0.03 0.0
0.59 0.03 0.0
0.6 0.03 0.0
0.61 0.03 0.0
0.62 0.03 0.0
0.63 0.03 0.0
0.64 0.03 0.0
0.65 0.03 0.0
0.66 0.03 0.0
0.67 0.03 0.0
0.68 0.03 0.0
0.6900000000000001 0.03 0.0
0.7000000000000001 0.03 0.0
0.71 0.03 0.0
0.72 0.03 0.0
0.73 0.03 0.0
0.74 0.03 0.0
0.75 0.03 0.0
0.76 0.03 0.0
0.77 0.03 0.0
0.78 0.03 0.0
0.79 0.03 0.0
0.8 0.03 0.0
0.81 0.03 0.0
0.8200000000000001 0.03 0.0
0.8300000000000001 0.03 0.0
0.84 0.03 0.0
0.85 0.03 0.0
0.86 0.03 0.0
0.87 0.03 0.0
0.88 0.03 0.0
0.89 0.03 0.0
0.9 0.03 0.0
0.91 0.03 0.0
0.92 0.03 0.0
0.93 0.03 0.0
0.9400000000000001 0.03 0.0
0.9500000000000001 0.03 0.0
0.96 0.03 0.0
0.97 0.03 0.0
0.98 0.03 0.0
0.99 0.03 0.0
1.0 0.03 0.0
0.0 0.04 0.0
0.01 0.04 0.0
0.02 0.04 0.0
0.03 0.04 0.0
0.04 0.04 0.0
0.05 0.04 0.0
0.06 0.04 0.0
0.07 0.04 0.0
0.08 0.04 0.0
0.09 0.04 0.0
0.1 0.04 0.0
0.11 0.04 0.0
0.12 0.04 0.0
0.13 0.04 0.0
0.14 0.04 0.0
0.15 0.04 0.0
0.16 0.04 0.0
0.17 0.04 0.0
0.18 0.04 0.0
0.19 0.04 0.0
0.2 0.04 0.0
0.21 0.04 0.0
0.22 0.04 0.0
0.23 0.04 0.0
0.24 0.04 0.0
0.25 0.04 0.0
0.26 0.04 0.0
0.27 0.04 0.0
0.28 0.04 0.0
0.29 0.04 0.0
0.3 0.04 0.0
0.31 0.04 0.0
0.32 0.04 0.0
0.33 0.04 0.0
0.34 0.04 0.0
0.35000000000000003 0.04 0.0
0.36 0.04 0.0
0.37 0.04 0.0
0.38 0.04 0.0
0.39 0.04 0.0
0.4 0.04 0.0
0.41000000000000003 0.04 0.0
0.42 0.04 0.0
0.43 0.04 0.0
0.44 0.04 0.0
0.45 0.04 0.0
0.46 0.04 0.0
0.47000000000000003 0.04 0.0
0.48 0.04 0.0
0.49 0.04 0.0
0.5 0.04 0.0
0.51 0.04 0.0
0.52 0.04 0.0
0.53 0.04 0.0
0.54 0.04 0.0
0.55 0.04 0.0
0.56 0.04 0.0
0.5700000000000001 0.04 0.0
0.58 0.04 0.0
0.59 0.04 0.0
0.6 0.04 0.0
0.61 0.04 0.0
0.62 0.04 0.0
0.63 0.04 0.0
0.64 0.04 0.0
0.65 0.04 0.0
0.66 0.04 0.0
0.67 0.04 0.0
0.68 0.04 0.0
0.6900000000000001 0.04 0.0
0.7000000000000001 0.04 0.0
0.71 0.04 0.0
0.72 0.04 0.0
0.73 0.04 0.0
0.74 0.04 0.0
0.75 0.04 0.0
0.76 0.04 0.0
0.77 0.04 0.0
0.78 0.04 0.0
0.79 0.04 0.0
0.8 0.04 0.0
0.81 0.04 0.0
0.8200000000000001 0.04 0.0
0.8300000000000001 0.04 0.0
0.84 0.04 0.0
0.85 0.04 0.0
0.86 0.04 0.0
0.87 0.04 0.0
0.88 0.04 0.0
0.89 0.04 0.0
0.9 0.04 0.0
0.91 0.04 0.0
0.92 0.04 0.0
0.93 0.04 0.0
0.9400000000000001 0.04 0.0
0.9500000000000001 0.04 0.0
0.96 0.04 0.0
0.97 0.04 0.0
0.98 0.04 0.0
0.99 0.04 0.0
1.0 0.04 0.0
0.0 0.05 0.0
0.01 0.05 0.0
0.02 0.05 0.0
0.03 0.05 0.0
0.04 0.05 0.0
0.05 0.05 0.0
0.06 0.05 0.0
0.07 0.05 0.0
0.08 0.05 0.0
0.09 0.05 0.0
0.1 0.05 0.0
0.11 0.05 0.0
0.12 0.05 0.0
0.13 0.05 0.0
0.14 0.05 0.0
0.15 0.05 0.0
0.16 0.05 0.0
0.17 0.05 0.0
0.18 0.05 0.0
0.19 0.05 0.0
0.2 0.05 0.0
0.21 0.05 0.0
0.22 0.05 0.0
0.23 0.05 0.0
0.24 0.05 0.0
0.25 0.05 0.0
0.26 0.05 0.0
0.27 0.05 0.0
0.28 0.05 0.0
0.29 0.05 0.0
0.3 0.05 0.0
0.31 0.05 0.0
0.32 0.05 0.0
0.33 0.05 0.0
0.34 0.05 0.0
0.35000000000000003 0.05 0.0
0.36 0.05 0.0
0.37 0.05 0.0
0.38 0.05 0.0
0.39 0.05 0.0
0.4 0.05 0.0
0.41000000000000003 0.05 0.0
0.42 0.05 0.0
0.43 0.05 0.0
0.44 0.05 0.0
0.45 0.05 0.0
0.46 0.05 0.0
0.47000000000000003 0.05 0.0
0.48 0.05 0.0
0.49 0.05 0.0
0.5 0.05 0.0
0.51 0.05 0.0
0.52 0.05 0.0
0.53 0.05 0.0
0.54 0.05 0.0
0.55 0.05 0.0
0.56 0.05 0.0
0.5700000000000001 0.05 0.0
0.58 0.05 0.0
0.59 0.05 0.0
0.6 0.05 0.0
0.61 0.05 0.0
0.62 0.05 0.0
0.63 0.05 0.0
0.64 0.05 0.0
0.65 0.05 0.0
0.66 0.05 0.0
0.67 0.05 0.0
0.68 0.05 0.0
0.6900000000000001 0.05 0.0
0.7000000000000001 0.05 0.0
0.71 0.05 0.0
0.72 0.05 0.0
0.73 0.05 0.0
0.74 0.05 0.0
0.75 0.05 0.0
0.76 0.05 0.0
0.77 0.05 0.0
0.78 0.05 0.0
0.79 0.05 0.0
0.8 0.05 0.0
0.81 0.05 0.0
0.8200000000000001 0.05 0.0
0.8300000000000001 0.05 0.0
0.84 0.05 0.0
0.85 0.05 0.0
0.86 0.05 0.0
0.87 0.05 0.0
0.88 0.05 0.0
0.89 0.05 0.0
0.9 0.05 0.0
0.91 0.05 0.0
0.92 0.05 0.0
0.93 0.05 0.0
0.9400000000000001 0.05 0.0
0.9500000000000001 0.05 0.0
0.96 0.05 0.0
0.97 0.05 0.0
0.98 0.05 0.0
0.99 0.05 0.0
1.0 0.05 0.0
0.0 0.06 0.0
0.01 0.06 0.0
0.02 0.06 0.0
0.03 0.06 0.0
0.04 0.06 0.0
0.05 0.06 0.0
0.06 0.06 0.0
0.07 0.06 0.0
0.08 0.06 0.0
0.09 0.06 0.0
0.1 0.06 0.0
0.11 0.06 0.0
0.12 0.06 0.0
0.13 0.06 0.0
0.14 0.06 0.0
0.15 0.06 0.0
0.16 0.06 0.0
0.17 0.06 0.0
0.18 0.06 0.0
0.19 0.06 0.0
0.2 0.06 0.0
0.21 0.06 0.0
0.22 0.06 0.0
0.23 0.06 0.0
0.24 0.06 0.0
0.25 0.06 0.0
0.26 0.06 0.0
0.27 0.06 0.0
0.28 0.06 0.0
0.29 0.06 0.0
0.3 0.06 0.0
0.31 0.06 0.0
0.32 0.06 0.0
0.33 0.06 0.0
0.34 0.06 0.0
0.35000000000000003 0.06 0.0
0.36 0.06 0.0
0.37 0.06 0.0
0.38 0.06 0.0
0.39 0.06 0.0
0.4 0.06 0.0
0.41000000000000003 0.06 0.0
0.42 0.06 0.0
0.43 0.06 0.0
0.44 0.06 0.0
0.45 0.06 0.0
0.46 0.06 0.0
[...]
POINT_DATA  10201
FIELD  FlowField  5
Density    1 10201  double
2.4642898102208344
2.4919151234540586
2.564340862422928
2.668278695393902
2.797300643647331
2.944105560450067
3.101619454043242
3.26368500234594
3.425348797032576
3.5829166623383926
3.7338784473391318
3.8767518903212803
4.010884710730617
4.136250373064465
4.253262715746368
4.362621985389974
4.465194885168483
4.561925511714728
4.653771867888041
4.741662792791016
4.826469889950071
4.908992812485796
4.989953984158932
5.069996042167178
5.149683091299336
5.229504966207527
5.30987614415996
5.391140202316502
5.47358024122067
5.557435556464658
5.6429194810302015
5.730176825994905
5.819259923926554
5.910155179099749
6.00278506192414
6.097001870529795
6.192602837915759
6.289330655334313
6.386849866699478
6.4847100844008745
6.582364688580256
6.679213717390699
6.7745795286315795
6.8676839877284515
6.957637218002924
7.043428714360399
7.123914931710462
7.197798560385808
7.263600084136842
7.319621979382137
7.363908177429741
7.394205082305193
7.407935402502201
7.402198939776059
7.373809125579607
7.319360040077346
7.235304463118462
7.118022672423381
6.96387285446005
6.769244877875137
6.530653846979369
6.244986784341293
5.910029181073817
5.525152706276206
5.091887384067068
4.614221863137298
4.098779436985034
3.555435890033402
2.999215610155183
2.453788222611774
1.9544549514434353
1.5442835561607549
1.2574558829510676
1.0968371533869277
1.0286473596721817
1.0070064935440535
1.001533713588822
1.0003140177975471
1.0000609776978304
1.0000112837412456
1.0000019953285697
1.0000003380308717
1.0000000550052106
1.0000000086200527
1.000000001304466
1.0000000001911211
1.0000000000271783
1.0000000000037597
1.0000000000005065
1.0000000000000662
1.000000000000008
1.0000000000000007
1.0
1.0
1.0
1.0
1.0
1.0
1.0
1.0
1.0
2.4545971474501647
2.4750608921872033
2.5285316789800474
2.6053024142183787
2.701697819868389
2.8139408209255734
2.938244046541438
3.0708102402626656
3.2079325426437717
3.346209013445736
3.482766091455519
3.615397909785404
3.742595951883196
3.8634921931450075
3.977753628651432
4.085460658786046
4.186990271720035
4.282914544674741
4.373918099709864
4.460735227508478
4.544105648682984
4.624744506152423
4.703321925335845
4.780449948528677
4.856676815042278
4.932487944630197
5.0083024704438985
5.084469472477075
5.161283766041768
5.239003945336147
5.317837955376023
5.39791385855303
5.47928046828124
5.561920541543971
5.645749295460101
5.730604746921452
5.816260737228156
5.9024288518644745
5.988716722184332
6.074610184710991
6.159495898972538
6.242665094325073
6.323288966519194
6.400401835032533
6.472891630595236
6.539491608063271
6.598772555098581
6.649133877449176
6.688792159785499
6.715766273699497
6.727860386615433
6.72265313790853
6.697505917998219
6.649624583325038
6.576231514530263
6.474868732214633
6.343792208088417
6.18237933341413
5.991435605183193
5.773522900782601
5.533196287677984
5.275572808088253
5.004223281449022
4.720377165215083
4.422858236775314
4.108433752058815
3.7725181469995075
3.410503165780183
3.0204335736789734
2.607423881290443
2.188710749967187
1.7954865787568322
1.4661961837191446
1.2302403741882009
1.0918578472037352
1.0286639626620093
1.0071054649880955
1.001515082958285
1.0002979825892027
1.0000554445729912
1.0000098333891039
1.0000016682156412
1.0000002714816856
1.0000000424989781
1.0000000064176848
1.0000000009374213
1.0000000001328
1.0000000000182911
1.000000000002455
1.0000000000003213
1.0000000000000406
1.0000000000000049
1.0000000000000004
1.0
1.0
1.0
1.0
1.0
1.0
1.0
1.0
2.4774012300213872
2.483856444819493
2.499844216680196
2.521758227330831
2.55020662757784
2.5872620232105707
2.635041317878885
2.69458400824136
2.765512328355639
2.8462927645491223
2.9347304292539027
3.02842667856761
3.1250970772563234
3.222752496470841
3.319780866448822
3.4149652999764655
3.5074633592212665
3.596763288739198
3.6826281754351653
3.7650375511316616
3.844134071610926
3.920175003404278
3.9934881395282367
4.0644357179371555
4.133386744668815
4.200699701721533
4.266707220299417
4.331701889424688
4.395941350298692
4.45963807353586
4.522926495259107
4.585860241386113
4.648420442717578
4.7105111633611
4.771953005661307
4.832468844531226
4.891688210669099
4.949133781432164
5.0041834123827895
5.056077370032131
5.10392140704264
5.146662285476923
5.1830763491544865
5.211772972571174
5.23121103742835
5.239739472205731
5.2356743547554885
5.217417640781502
5.18361606725149
5.133350260274399
5.066332761544233
4.983229268549613
4.8860795796641865
4.777936119407846
4.662013263201035
4.541285464850946
4.418383798699603
4.295809674316739
4.176165475088187
4.062090995494611
3.9560184273523005
3.859757093965864
3.773861270918313
3.6968274961624434
3.6243099200597753
3.548601964134424
3.458608743993554
3.340509216780335
3.179357336694255
2.9620152332635508
2.6818962924324383
2.345492858924958
1.978520668616071
1.6258090141302304
1.3381700390374
1.1476086723207786
1.0498700902565035
1.0128844168231064
1.0027162002697536
1.000514954104749
1.0000918810251862
1.0000156250221701
1.0000025443274287
1.0000003979919134
1.0000000599814425
1.0000000087350014
1.000000001232626
1.0000000001689955
1.0000000000225664
1.000000000002941
1.0000000000003744
1.0000000000000466
1.0000000000000053
1.0000000000000004
1.0
1.0
1.0
1.0
1.0
1.0
1.0
2.5539574455214717
2.549916805897051
2.537482182898927
2.5166379012611673
2.4897666893043473
2.4618299496273375
2.438263856297434
2.4232835006878117
2.4192290165324706
2.4267388329364454
2.4452850764884375
2.4737049111647837
2.5105730734827785
2.5544128358006555
2.603798948967616
2.65740411879732
2.714020867463937
2.7725735411111385
2.8321260175604808
2.8918862962402523
2.9512062260475105
3.0095748189080758
3.066605167862845
3.1220162386157204
3.1756107591521756
3.2272535554368673
3.2768566372927372
3.3243632123430302
3.369718136573542
3.412837435473025
3.4535998272652444
3.491844681547386
3.5273627606967706
3.559890880381759
3.5891130384109795
3.614659992480434
3.6361021986303483
3.652946086320621
3.664671881551334
3.670783427601954
3.6708364344775157
3.6644855079714302
3.651577792301337
3.632281287304737
3.60706583417277
3.5765754466912183
3.541566483878463
3.50288471093257
3.461469963576441
3.4184195092460876
3.3750931264274016
3.333180255129499
3.294712541303758
3.262023735283599
3.237615410188321
3.2238902198012394
3.2227723747678905
3.235281196866148
3.261158971413387
3.2984157509873357
3.3428728476321274
3.3892749221580267
3.4329880898876413
3.4702744506092826
3.4977671343576078
3.5116229723833787
3.5066993832611417
3.475960183043942
3.4100723172478284
3.297417331244757
3.1252346669086437
2.882993191357135
2.5689072033590596
2.1990545643328794
1.813775038496077
1.4711397942198234
1.2220193015910428
1.0810205290722597
1.022131489599636
1.004686576665569
1.0008601583824783
1.000147239421524
1.0000240094990511
1.000003753336756
1.0000005645500734
1.0000000819604524
1.0000000115191163
1.000000001571712
1.00000000020874
1.000000000027049
1.000000000003427
1.000000000000425
1.0000000000000515
1.0000000000000058
1.0000000000000004
1.0
1.0
1.0
1.0
1.0
1.0
2.623020022832361
2.6137658271693693
2.587265004394523
2.5450225718338992
2.489619680561333
2.426727437374473
2.362798742579983
2.3031528260248177
2.25111885199208
2.2081121021249945
2.1742102354650408
2.1487977242493015
2.131033327519041
2.1200919794162343
2.1152400655428045
2.1158245119623267
2.121235229816298
2.130872587588713
2.144131524374804
2.160400895199829
2.1790709346519375
2.1995446878510663
2.221250247098763
2.2436507030429462
2.2662507198302033
2.2886013597791695
2.3103171006973984
2.3310747736470767
2.3505823272339685
2.3685804055261896
2.3848595476501675
2.399260948458704
2.4116819920193864
2.422086130341931
2.430512530410596
2.4370784210786893
2.4419474080243453
2.445331662890913
2.447536036509575
2.448964313819206
2.450115894923098
2.451595542992181
2.4541261296990395
2.4585581666613145
2.4658716454191545
2.4771598842595917
2.493583690949135
2.516289387157585
2.5462912675376455
2.5843270169734276
2.6307050194529356
2.6850270979535447
2.745798928473928
2.8108123832501133
2.87801546435568
2.9459168066864683
3.01366453837943
3.0807783816684764
3.146826514626457
3.211331543412972
3.2737419158835186
3.3333922150800075
3.389441123252414
3.4407762343277377
3.485871335066623
3.522577485421831
3.5478261792038
3.5572256421011645
3.544550898578515
3.501189650992015
3.4157642369943613
3.2744887490790124
3.063335262459583
2.773468448394258
2.410760350356519
2.0064923992004733
1.6186984291201707
1.3122296474906314
1.1225325276629028
1.0356339893677795
1.007701297647173
1.0013772577145585
1.0002263977118968
1.0000354070377833
1.000005315513432
1.00000076919383
1.0000001076443625
1.0000000146124828
1.0000000019295185
1.0000000002484712
1.0000000000312754
1.0000000000038558
1.0000000000004658
1.0000000000000546
1.0000000000000058
1.0000000000000004
1.0
1.0
1.0
1.0
1.0
2.650607317834809
2.639195801415361
2.6069820923876366
2.5560506139300148
2.4887314701088497
2.410701947334249
2.3287667593173658
2.248923720200435
2.1752875170459176
2.109884746369401
2.0530701091615358
2.0041891808490457
1.9621771067592149
1.9259510197300589
1.8945978086801833
1.8674224209056685
1.8439240537354022
1.8237465666897617
1.806628045302852
1.7923589353008622
1.7807512381927757
1.7716198193712434
1.7647740226677455
1.7600168057481502
1.7571501122760247
1.7559857764907092
1.7563743676171932
1.7582105587967036
1.7614106236778047
1.7659260814415239
1.7717668937001225
1.7790075354332318
1.7877909491377029
1.7983301915822614
1.8109080217069542
1.8258670121809184
1.843573127981879
1.8644163217197454
1.888820399123842
1.9172009317839869
1.9499238043703664
1.9872626037538312
2.029319073098391
2.075912862806096
2.1266226948358007
2.180941637842143
2.2383710559533645
2.2984798578461323
2.36093972926185
2.425503760883701
2.491943336555723
2.560015777914942
2.629461004066968
2.7000003060201125
2.771335334226487
2.84314737278439
2.9150968332204625
2.986822586181655
3.0579403117295643
3.128038444361429
3.196669496876884
3.2633334625328057
3.3274484668404747
3.3883017435241776
3.444970994079134
3.4962021556638727
3.5402244259087494
3.5744777687019793
3.5952250622312305
3.5970284976799474
3.5721070475312544
3.5097028007756994
3.395867206445958
3.2146037286861695
2.9520003151878247
2.6050232074315307
2.1944150995798037
1.7731499784541902
1.414429322490899
1.1737468697520845
1.0537914366944627
1.0120088876655742
1.0021097004624095
1.0003335491677485
1.00005005246077
1.0000072197021477
1.0000010057966922
1.0000001357934996
1.0000000178210713
1.0000000022796047
1.0000000002849183
1.0000000000348703
1.0000000000041864
1.0000000000004938
1.0000000000000568
1.0000000000000062
1.0000000000000004
1.0
1.0
1.0
1.0
2.638289222263534
2.6261186678351534
2.5919820863848715
2.5381250881511073
2.4664394164737207
2.3821622826891224
2.2919198590258616
2.201996753778513
2.1171993528391915
2.0403813730036227
1.9725756348582864
1.9135090652359736
1.8622075366962936
1.817478498970133
1.7782003712189531
1.7434477996433042
1.7125150408544387
1.6848913883452479
1.6602217393763115
1.6382678594823277
1.6188763485414848
1.6019546888665235
1.5874539212306382
1.5753566259260392
1.5656702318673248
1.5584246576818073
1.5536877676896803
1.55155927584634
1.552137586652736
1.5555208424662263
1.5618180285682435
1.571146027419316
1.5836233230695766
1.599360486449573
1.618455301709404
1.640980481783071
1.6669663211017505
1.6964235002526853
1.7293583601602063
1.7657582600038528
1.8055897606031341
1.8487990286087537
1.895311764002774
1.9450331753887797
1.9978489694868715
2.053626577603218
2.112216615527235
2.1734549181786704
2.2371641850195783
2.3031551623511026
2.3712266617436706
2.441164126526729
2.512737341685776
2.585697769609708
2.659776004119786
2.7346797905358065
2.810092932393923
2.8856751798661966
2.961062872643556
3.0358696551076907
3.109686012308828
3.1820756082634736
3.2525653803887025
3.3206249653891597
3.3856290373991036
3.4467933132017223
3.503070919368401
3.552990257125619
3.5944085901280625
3.624148769354597
3.63748522556713
3.627464616407212
3.5841216097031023
3.4938689914456287
3.339827944205765
3.1046731457231282
2.778205842755757
2.3708067232699785
1.927259406744978
1.5237086162341644
1.2327781721583742
1.0763992559351319
1.0177304235481954
1.0030860081905193
1.0004702383012578
1.0000677519443724
1.0000093962643228
1.0000012612979474
1.0000001644465673
1.0000000208861817
1.0000000025909328
1.0000000003146439
1.0000000000374822
1.0000000000043876
1.000000000000505
1.0000000000000568
1.000000000000006
1.0000000000000004
1.0
1.0
1.0
2.5962528413921726
2.5838999872943953
2.5494279538045914
2.49517324801676
2.422632829625095
2.336433061256232
2.242657330143632
2.147425117325764
2.0558570296359946
1.9714603006716758
1.8959920574118887
1.8297465401861177
1.7720660897067844
1.721848956649121
1.6779172748625129
1.639219869271406
1.604909260346872
1.574346079708254
1.5470715025576571
1.5227710766378595
1.5012408817513054
1.4823597739825256
1.4660676661915226
1.452349249142311
1.4412228693272395
1.4327330328824512
1.4269630991180602
1.424023020531626
1.4240119672561347
1.4270191103905308
1.4331317896101041
1.4424328789301326
1.454999482697557
1.4709036116746628
1.490215228952166
1.5129793944769299
1.539212539147915
1.5689322818638658
1.6021535210751603
1.6388732380913966
1.6790668238369544
1.722686044965392
1.7696583317583747
1.8198877063001868
1.8732573466026206
1.9296336575802635
1.9888709854376936
2.050815243778399
2.1153061957201214
2.1821784331654572
2.2512606821930716
2.32237380462619
2.3953274225469046
2.4699154172334534
2.5459111414919406
2.6230630468932903
2.7010913495460693
2.779686213420679
2.858507701941437
2.9371873954842744
3.0153311311072564
3.092521730971837
3.168319825891807
3.24225994228413
3.313837697694682
3.3824821097377913
3.447504410308177
3.5080108134253267
3.5627611049311554
3.6099472801851626
3.646857339540264
3.6693824146810345
3.6713311494643426
3.6435631850432975
3.573116786908868
3.4429280083785194
3.233551051073263
2.9293409258115837
2.5314287141406084
2.0750097200054785
1.634868945700132
1.2968286763752044
1.1026211442480127
1.0247800554283066
1.0043037936241226
1.00063357908069
1.0000877267259092
1.000011708341402
1.0000015159260187
1.0000001910786476
1.0000000235143143
1.0000000028320934
1.0000000003345557
1.0000000000388343
1.0000000000044365
1.0000000000004992
1.000000000000055
1.0000000000000058
1.0000000000000004
1.0
1.0
2.533844997080134
2.5214725075384847
2.487150495098912
2.433408467184345
2.3615170663841836
2.2755506597282436
2.1809407939756777
2.083359572490333
1.98787976798767
1.8983613578638039
1.817144462398213
1.7451095860359427
1.6820277987861596
1.6270207790257571
1.578964689192319
1.5367588533693601
1.4994612136432106
1.466330692742264
1.436818928572073
1.4105411458366046
1.3872426471547492
1.3667684780831826
1.3490384077141688
1.3340273541174843
1.3217506215761639
1.3122538533342507
1.3056278363936047
1.30198731942625
1.301429935023684
1.304042533915268
1.3099074707750817
1.319099947349317
1.3316869089033307
1.347732234168041
1.3672884722560688
1.3903723257432126
1.4169879277627422
1.4471481578519203
1.4808553038987065
1.518093151790703
1.55882401250851
1.6029866966872124
1.6504959614478025
1.7012439650445255
1.755103831196394
1.8119348718634365
1.8715885716419909
1.9339144780823805
1.9987647086470905
2.0659957599412246
2.135467842463712
2.2070421289656568
2.2805759402905528
2.355916563247183
2.432894288927183
2.511315236507055
2.590954875646827
2.6715530548476014
2.752811181227194
2.8343919403398545
2.9159216103467442
2.9969945463603933
3.0771787871669285
3.1560210017817734
3.233048055025611
3.307761180604022
3.3796171731596516
3.4479884073191966
3.5120899052345886
3.570856160997165
3.622742440468421
3.6654150482674828
3.695283854966095
3.7068269760754804
3.6916840498644583
3.6376146247106105
3.527771469375813
3.341504723235974
3.0591830942255864
2.6741641677598205
2.2119530103572966
1.7430864135838657
1.3626208385858691
1.1310851193130975
1.032830215671874
1.0057156667683642
1.0008148952165723
1.0001085524986728
1.0000139577000002
1.0000017451869236
1.0000002129371826
1.0000000254218933
1.0000000029764493
1.00000000034243
1.0000000000387756
1.0000000000043274
1.0000000000004763
1.0000000000000515
1.0000000000000053
1.0000000000000004
1.0
2.4581094058617015
2.4456808451329715
2.4114528619956404
2.3583015708568156
2.2874513034110544
2.2025848029135893
2.108556592663588
2.0104925304060517
1.9131744361468939
1.8205217486586958
1.7352316413902622
1.65867675179298
1.591081308650818
1.5318773671729742
1.4800919342211567
1.4346535730059675
1.3945800428639168
1.359062996679362
1.327485755010256
1.2994065997319053
1.2745290163118588
1.2526707954792244
1.23373677503493
1.2176960455311772
1.2045626094212487
1.1943875109767683
1.187273738101538
1.1833383981149146
1.1826722005390908
1.18535385071226
1.1914522631854234
1.2010256823644574
1.2141274666602646
1.2308071019797853
1.2510797717710305
1.2749327472412413
1.3023619105991002
1.3333642972832322
1.3679232860477035
1.4060038240884583
1.44754941393974
1.4924798738501224
1.5406907537923873
1.5920552331448707
1.6464287605808523
1.7036559494982177
1.763578604219941
1.8260434570020725
1.890908298398586
1.9580456979931478
2.027343661630054
2.0987028248975954
2.1720308739081533
2.24723498293398
2.324212737350876
2.4028422906434743
2.4829726675489594
2.564415090220196
2.6469361847429065
2.7302538836330648
2.814036625092002
2.8979060787562134
2.981443089088528
3.0641958907574867
3.1456889236804413
3.2254294330405697
3.3029081393205377
3.377588371677446
3.4488759925672574
3.5160589330415926
3.5781997427939354
3.633956866135475
3.681298856471689
3.7170626002321336
3.7362955823053876
3.731333843827251
3.690652757518027
3.597819109551906
3.4315738800941427
3.1694334915935904
2.7984586698205116
2.33516803063783
1.844304966532183
1.4268105172325034
1.1600630100362066
1.041338609180568
1.0072237013105902
1.0009994749463897
1.0001282534398495
1.0000159082830418
1.0000019235113198
1.0000002275001159
1.0000000263852769
1.000000003006972
1.0000000003373235
1.0000000000373046
1.0000000000040719
1.0000000000004392
1.0000000000000466
1.0000000000000044
1.0000000000000007
2.3740743266616633
2.3614737646902384
2.32705508254816
2.27418585929117
2.2041917257267913
2.120524294342436
2.02762129358631
1.9301052419453744
1.8323527550582162
1.7381253672569876
1.6502442560411814
1.570412437758629
1.499251338879353
1.4365316233298877
1.381498800519691
1.3331813141101796
1.290612988752824
1.2529572114872727
1.219554355804004
1.1899221740517527
1.1637334210691834
1.140786647705038
1.120977786195087
1.104273954514806
1.090688229714341
1.0802870840342638
1.0731875042356054
1.0694963885765947
1.0692892050199583
1.072626031889213
1.0795517767600564
1.0901039171034617
1.1043146152477954
1.1221870316658071
1.143695409943265
1.1688183561020549
1.197539291691298
1.229830946349317
1.2656527872510444
1.3049471343503805
1.3476347459097462
1.3936119737121846
1.4427498896681408
1.4948965004870736
1.5498825130655327
1.6075301170311656
1.66766337252233
1.730118381332263
1.7947515641875065
1.8614448852006213
1.9301074788710415
2.000673690133478
2.0730978623363088
2.1473461898198107
2.2233863539926695
2.3011758410277268
2.3806496078045973
2.461707910265888
2.544205283052213
2.627941692837804
2.7126568739281742
2.7980286801017478
2.8836758565853113
2.9691651039415223
3.0540217291579923
3.137741917187514
3.2198042531291353
3.2996763337397907
3.376811215686459
3.450626243113188
3.5204533174545456
3.5854450878636657
3.6444131854672674
3.6955634668852797
3.7360776591938705
3.7614756349194263
3.7646905525589744
3.734850655096604
3.655997970236181
3.5066121411567566
3.2621798939057873
2.9047617859966506
2.4429971946699984
1.935378325629925
1.4863060322639616
1.1876859227241987
1.049619365423451
1.008687206204839
1.0011679782156602
1.0001445754263705
1.0000173253200955
1.0000020288928324
1.000000232954191
1.0000000262839714
1.000000002919546
1.0000000003197533
1.0000000000345748
1.000000000003695
1.0000000000003904
1.0000000000000406