# vtk DataFile Version 3.0 
shock_diffraction_time_series_207_.vtk
ASCII
DATASET UNSTRUCTURED_GRID
POINTS         10201 double
0.0 0.0 0.0
0.01 0.0 0.0
0.02 0.0 0.0
0.03 0.0 0.0
0.04 0.0 0.0
0.05 0.0 0.0
0.06 0.0 0.0
0.07 0.0 0.0
0.08 0.0 0.0
0.09 0.0 0.0
0.1 0.0 0.0
0.11 0.0 0.0
0.12 0.0 0.0
0.13 0.0 0.0
0.14 0.0 0.0
0.15 0.0 0.0
0.16 0.0 0.0
0.17 0.0 0.0
0.18 0.0 0.0
0.19 0.0 0.0
0.2 0.0 0.0
0.21 0.0 0.0
0.22 0.0 0.0
0.23 0.0 0.0
0.24 0.0 0.0
0.25 0.0 0.0
0.26 0.0 0.0
0.27 0.0 0.0
0.28 0.0 0.0
0.29 0.0 0.0
0.3 0.0 0.0
0.31 0.0 0.0
0.32 0.0 0.0
0.33 0.0 0.0
0.34 0.0 0.0
0.35000000000000003 0.0 0.0
0.36 0.0 0.0
0.37 0.0 0.0
0.38 0.0 0.0
0.39 0.0 0.0
0.4 0.0 0.0
0.41000000000000003 0.0 0.0
0.42 0.0 0.0
0.43 0.0 0.0
0.44 0.0 0.0
0.45 0.0 0.0
0.46 0.0 0.0
0.47000000000000003 0.0 0.0
0.48 0.0 0.0
0.49 0.0 0.0
0.5 0.0 0.0
0.51 0.0 0.0
0.52 0.0 0.0
0.53 0.0 0.0
0.54 0.0 0.0
0.55 0.0 0.0
0.56 0.0 0.0
0.5700000000000001 0.0 0.0
0.58 0.0 0.0
0.59 0.0 0.0
0.6 0.0 0.0
0.61 0.0 0.0
0.62 0.0 0.0
0.63 0.0 0.0
0.64 0.0 0.0
0.65 0.0 0.0
0.66 0.0 0.0
0.67 0.0 0.0
0.68 0.0 0.0
0.6900000000000001 0.0 0.0
0.7000000000000001 0.0 0.0
0.71 0.0 0.0
0.72 0.0 0.0
0.73 0.0 0.0
0.74 0.0 0.0
0.75 0.0 0.0
0.76 0.0 0.0
0.77 0.0 0.0
0.78 0.0 0.0
0.79 0.0 0.0
0.8 0.0 0.0
0.81 0.0 0.0
0.8200000000000001 0.0 0.0
0.8300000000000001 0.0 0.0
0.84 0.0 0.0
0.85 0.0 0.0
0.86 0.0 0.0
0.87 0.0 0.0
0.88 0.0 0.0
0.89 0.0 0.0
0.9 0.0 0.0
0.91 0.0 0.0
0.92 0.0 0.0
0.93 0.0 0.0
0.9400000000000001 0.0 0.0
0.9500000000000001 0.0 0.0
0.96 0.0 0.0
0.97 0.0 0.0
0.98 0.0 0.0
0.99 0.0 0.0
1.0 0.0 0.0
0.0 0.01 0.0
0.01 0.01 0.0
0.02 0.01 0.0
0.03 0.01 0.0
0.04 0.01 0.0
0.05 0.01 0.0
0.06 0.01 0.0
0.07 0.01 0.0
0.08 0.01 0.0
0.09 0.01 0.0
0.1 0.01 0.0
0.11 0.01 0.0
0.12 0.01 0.0
0.13 0.01 0.0
0.14 0.01 0.0
0.15 0.01 0.0
0.16 0.01 0.0
0.17 0.01 0.0
0.18 0.01 0.0
0.19 0.01 0.0
0.2 0.01 0.0
0.21 0.01 0.0
0.22 0.01 0.0
0.23 0.01 0.0
0.24 0.01 0.0
0.25 0.01 0.0
0.26 0.01 0.0
0.27 0.01 0.0
0.28 0.01 0.0
0.29 0.01 0.0
0.3 0.01 0.0
0.31 0.01 0.0
0.32 0.01 0.0
0.33 0.01 0.0
0.34 0.01 0.0
0.35000000000000003 0.01 0.0
0.36 0.01 0.0
0.37 0.01 0.0
0.38 0.01 0.0
0.39 0.01 0.0
0.4 0.01 0.0
0.41000000000000003 0.01 0.0
0.42 0.01 0.0
0.43 0.01 0.0
0.44 0.01 0.0
0.45 0.01 0.0
0.46 0.01 0.0
0.47000000000000003 0.01 0.0
0.48 0.01 0.0
0.49 0.01 0.0
0.5 0.01 0.0
0.51 0.01 0.0
0.52 0.01 0.0
0.53 0.01 0.0
0.54 0.01 0.0
0.55 0.01 0.0
0.56 0.01 0.0
0.5700000000000001 0.01 0.0
0.58 0.01 0.0
0.59 0.01 0.0
0.6 0.01 0.0
0.61 0.01 0.0
0.62 0.01 0.0
0.63 0.01 0.0
0.64 0.01 0.0
0.65 0.01 0.0
0.66 0.01 0.0
0.67 0.01 0.0
0.68 0.01 0.0
0.6900000000000001 0.01 0.0
0.7000000000000001 0.01 0.0
0.71 0.01 0.0
0.72 0.01 0.0
0.73 0.01 0.0
0.74 0.01 0.0
0.75 0.01 0.0
0.76 0.01 0.0
0.77 0.01 0.0
0.78 0.01 0.0
0.79 0.01 0.0
0.8 0.01 0.0
0.81 0.01 0.0
0.8200000000000001 0.01 0.0
0.8300000000000001 0.01 0.0
0.84 0.01 0.0
0.85 0.01 0.0
0.86 0.01 0.0
0.87 0.01 0.0
0.88 0.01 0.0
0.89 0.01 0.0
0.9 0.01 0.0
0.91 0.01 0.0
0.92 0.01 0.0
0.93 0.01 0.0
0.9400000000000001 0.01 0.0
0.9500000000000001 0.01 0.0
0.96 0.01 0.0
0.97 0.01 0.0
0.98 0.01 0.0
0.99 0.01 0.0
1.0 0.01 0.0
0.0 0.02 0.0
0.01 0.02 0.0
0.02 0.02 0.0
0.03 0.02 0.0
0.04 0.02 0.0
0.05 0.02 0.0
0.06 0.02 0.0
0.07 0.02 0.0
0.08 0.02 0.0
0.09 0.02 0.0
0.1 0.02 0.0
0.11 0.02 0.0
0.12 0.02 0.0
0.13 0.02 0.0
0.14 0.02 0.0
0.15 0.02 0.0
0.16 0.02 0.0
0.17 0.02 0.0
0.18 0.02 0.0
0.19 0.02 0.0
0.2 0.02 0.0
0.21 0.02 0.0
0.22 0.02 0.0
0.23 0.02 0.0
0.24 0.02 0.0
0.25 0.02 0.0
0.26 0.02 0.0
0.27 0.02 0.0
0.28 0.02 0.0
0.29 0.02 0.0
0.3 0.02 0.0
0.31 0.02 0.0
0.32 0.02 0.0
0.33 0.02 0.0
0.34 0.02 0.0
0.35000000000000003 0.02 0.0
0.36 0.02 0.0
0.37 0.02 0.0
0.38 0.02 0.0
0.39 0.02 0.0
0.4 0.02 0.0
0.41000000000000003 0.02 0.0
0.42 0.02 0.0
0.43 0.02 0.0
0.44 0.02 0.0
0.45 0.02 0.0
0.46 0.02 0.0
0.47000000000000003 0.02 0.0
0.48 0.02 0.0
0.49 0.02 0.0
0.5 0.02 0.0
0.51 0.02 0.0
0.52 0.02 0.0
0.53 0.02 0.0
0.54 0.02 0.0
0.55 0.02 0.0
0.56 0.02 0.0
0.5700000000000001 0.02 0.0
0.58 0.02 0.0
0.59 0.02 0.0
0.6 0.02 0.0
0.61 0.02 0.0
0.62 0.02 0.0
0.63 0.02 0.0
0.64 0.02 0.0
0.65 0.02 0.0
0.66 0.02 0.0
0.67 0.02 0.0
0.68 0.02 0.0
0.6900000000000001 0.02 0.0
0.7000000000000001 0.02 0.0
0.71 0.02 0.0
0.72 0.02 0.0
0.73 0.02 0.0
0.74 0.02 0.0
0.75 0.02 0.0
0.76 0.02 0.0
0.77 0.02 0.0
0.78 0.02 0.0
0.79 0.02 0.0
0.8 0.02 0.0
0.81 0.02 0.0
0.8200000000000001 0.02 0.0
0.8300000000000001 0.02 0.0
0.84 0.02 0.0
0.85 0.02 0.0
0.86 0.02 0.0
0.87 0.02 0.0
0.88 0.02 0.0
0.89 0.02 0.0
0.9 0.02 0.0
0.91 0.02 0.0
0.92 0.02 0.0
0.93 0.02 0.0
0.9400000000000001 0.02 0.0
0.9500000000000001 0.02 0.0
0.96 0.02 0.0
0.97 0.02 0.0
0.98 0.02 0.0
0.99 0.02 0.0
1.0 0.02 0.0
0.0 0.03 0.0
0.01 0.03 0.0
0.02 0.03 0.0
0.03 0.03 0.0
0.04 0.03 0.0
0.05 0.03 0.0
0.06 0.03 0.0
0.07 0.03 0.0
0.08 0.03 0.0
0.09 0.03 0.0
0.1 0.03 0.0
0.11 0.03 0.0
0.12 0.03 0.0
0.13 0.03 0.0
0.14 0.03 0.0
0.15 0.03 0.0
0.16 0.03 0.0
0.17 0.03 0.0
0.18 0.03 0.0
0.19 0.03 0.0
0.2 0.03 0.0
0.21 0.03 0.0
0.22 0.03 0.0
0.23 0.03 0.0
0.24 0.03 0.0
0.25 0.03 0.0
0.26 0.03 0.0
0.27 0.03 0.0
0.28 0.03 0.0
0.29 0.03 0.0
0.3 0.03 0.0
0.31 0.03 0.0
0.32 0.03 0.0
0.33 0.03 0.0
0.34 0.03 0.0
0.35000000000000003 0.03 0.0
0.36 0.03 0.0
0.37 0.03 0.0
0.38 0.03 0.0
0.39 0.03 0.0
0.4 0.03 0.0
0.41000000000000003 0.03 0.0
0.42 0.03 0.0
0.43 0.03 0.0
0.44 0.03 0.0
0.45 0.03 0.0
0.46 0.03 0.0
0.47000000000000003 0.03 0.0
0.48 0.03 0.0
0.49 0.03 0.0
0.5 0.03 0.0
0.51 0.03 0.0
0.52 0.03 0.0
0.53 0.03 0.0
0.54 0.03 0.0
0.55 0.03 0.0
0.56 0.03 0.0
0.5700000000000001 0.03 0.0
0.58 0.03 0.0
0.59 0.03 0.0
0.6 0.03 0.0
0.61 0.03 0.0
0.62 0.03 0.0
0.63 0.03 0.0
0.64 0.03 0.0
0.65 0.03 0.0
0.66 0.03 0.0
0.67 0.03 0.0
0.68 0.03 0.0
0.6900000000000001 0.03 0.0
0.7000000000000001 0.03 0.0
0.71 0.03 0.0
0.72 0.03 0.0
0.73 0.03 0.0
0.74 0.03 0.0
0.75 0.03 0.0
0.76 0.03 0.0
0.77 0.03 0.0
0.78 0.03 0.0
0.79 0.03 0.0
0.8 0.03 0.0
0.81 0.03 0.0
0.8200000000000001 0.03 0.0
0.8300000000000001 0.03 0.0
0.84 0.03 0.0
0.85 0.03 0.0
0.86 0.03 0.0
0.87 0.03 0.0
0.88 0.03 0.0
0.89 0.03 0.0
0.9 0.03 0.0
0.91 0.03 0.0
0.92 0.03 0.0
0.93 0.03 0.0
0.9400000000000001 0.03 0.0
0.9500000000000001 0.03 0.0
0.96 0.03 0.0
0.97 0.03 0.0
0.98 0.03 0.0
0.99 0.03 0.0
1.0 0.03 0.0
0.0 0.04 0.0
0.01 0.04 0.0
0.02 0.04 0.0
0.03 0.04 0.0
0.04 0.04 0.0
0.05 0.04 0.0
0.06 0.04 0.0
0.07 0.04 0.0
0.08 0.04 0.0
0.09 0.04 0.0
0.1 0.04 0.0
0.11 0.04 0.0
0.12 0.04 0.0
0.13 0.04 0.0
0.14 0.04 0.0
0.15 0.04 0.0
0.16 0.04 0.0
0.17 0.04 0.0
0.18 0.04 0.0
0.19 0.04 0.0
0.2 0.04 0.0
0.21 0.04 0.0
0.22 0.04 0.0
0.23 0.04 0.0
0.24 0.04 0.0
0.25 0.04 0.0
0.26 0.04 0.0
0.27 0.04 0.0
0.28 0.04 0.0
0.29 0.04 0.0
0.3 0.04 0.0
0.31 0.04 0.0
0.32 0.04 0.0
0.33 0.04 0.0
0.34 0.04 0.0
0.35000000000000003 0.04 0.0
0.36 0.04 0.0
0.37 0.04 0.0
0.38 0.04 0.0
0.39 0.04 0.0
0.4 0.04 0.0
0.41000000000000003 0.04 0.0
0.42 0.04 0.0
0.43 0.04 0.0
0.44 0.04 0.0
0.45 0.04 0.0
0.46 0.04 0.0
0.47000000000000003 0.04 0.0
0.48 0.04 0.0
0.49 0.04 0.0
0.5 0.04 0.0
0.51 0.04 0.0
0.52 0.04 0.0
0.53 0.04 0.0
0.54 0.04 0.0
0.55 0.04 0.0
0.56 0.04 0.0
0.5700000000000001 0.04 0.0
0.58 0.04 0.0
0.59 0.04 0.0
0.6 0.04 0.0
0.61 0.04 0.0
0.62 0.04 0.0
0.63 0.04 0.0
0.64 0.04 0.0
0.65 0.04 0.0
0.66 0.04 0.0
0.67 0.04 0.0
0.68 0.04 0.0
0.6900000000000001 0.04 0.0
0.7000000000000001 0.04 0.0
0.71 0.04 0.0
0.72 0.04 0.0
0.73 0.04 0.0
0.74 0.04 0.0
0.75 0.04 0.0
0.76 0.04 0.0
0.77 0.04 0.0
0.78 0.04 0.0
0.79 0.04 0.0
0.8 0.04 0.0
0.81 0.04 0.0
0.8200000000000001 0.04 0.0
0.8300000000000001 0.04 0.0
0.84 0.04 0.0
0.85 0.04 0.0
0.86 0.04 0.0
0.87 0.04 0.0
0.88 0.04 0.0
0.89 0.04 0.0
0.9 0.04 0.0
0.91 0.04 0.0
0.92 0.04 0.0
0.93 0.04 0.0
0.9400000000000001 0.04 0.0
0.9500000000000001 0.04 0.0
0.96 0.04 0.0
0.97 0.04 0.0
0.98 0.04 0.0
0.99 0.04 0.0
1.0 0.04 0.0
0.0 0.05 0.0
0.01 0.05 0.0
0.02 0.05 0.0
0.03 0.05 0.0
0.04 0.05 0.0
0.05 0.05 0.0
0.06 0.05 0.0
0.07 0.05 0.0
0.08 0.05 0.0
0.09 0.05 0.0
0.1 0.05 0.0
0.11 0.05 0.0
0.12 0.05 0.0
0.13 0.05 0.0
0.14 0.05 0.0
0.15 0.05 0.0
0.16 0.05 0.0
0.17 0.05 0.0
0.18 0.05 0.0
0.19 0.05 0.0
0.2 0.05 0.0
0.21 0.05 0.0
0.22 0.05 0.0
0.23 0.05 0.0
0.24 0.05 0.0
0.25 0.05 0.0
0.26 0.05 0.0
0.27 0.05 0.0
0.28 0.05 0.0
0.29 0.05 0.0
0.3 0.05 0.0
0.31 0.05 0.0
0.32 0.05 0.0
0.33 0.05 0.0
0.34 0.05 0.0
0.35000000000000003 0.05 0.0
0.36 0.05 0.0
0.37 0.05 0.0
0.38 0.05 0.0
0.39 0.05 0.0
0.4 0.05 0.0
0.41000000000000003 0.05 0.0
0.42 0.05 0.0
0.43 0.05 0.0
0.44 0.05 0.0
0.45 0.05 0.0
0.46 0.05 0.0
0.47000000000000003 0.05 0.0
0.48 0.05 0.0
0.49 0.05 0.0
0.5 0.05 0.0
0.51 0.05 0.0
0.52 0.05 0.0
0.53 0.05 0.0
0.54 0.05 0.0
0.55 0.05 0.0
0.56 0.05 0.0
0.5700000000000001 0.05 0.0
0.58 0.05 0.0
0.59 0.05 0.0
0.6 0.05 0.0
0.61 0.05 0.0
0.62 0.05 0.0
0.63 0.05 0.0
0.64 0.05 0.0
0.65 0.05 0.0
0.66 0.05 0.0
0.67 0.05 0.0
0.68 0.05 0.0
0.6900000000000001 0.05 0.0
0.7000000000000001 0.05 0.0
0.71 0.05 0.0
0.72 0.05 0.0
0.73 0.05 0.0
0.74 0.05 0.0
0.75 0.05 0.0
0.76 0.05 0.0
0.77 0.05 0.0
0.78 0.05 0.0
0.79 0.05 0.0
0.8 0.05 0.0
0.81 0.05 0.0
0.8200000000000001 0.05 0.0
0.8300000000000001 0.05 0.0
0.84 0.05 0.0
0.85 0.05 0.0
0.86 0.05 0.0
0.87 0.05 0.0
0.88 0.05 0.0
0.89 0.05 0.0
0.9 0.05 0.0
0.91 0.05 0.0
0.92 0.05 0.0
0.93 0.05 0.0
0.9400000000000001 0.05 0.0
0.9500000000000001 0.05 0.0
0.96 0.05 0.0
0.97 0.05 0.0
0.98 0.05 0.0
0.99 0.05 0.0
1.0 0.05 0.0
0.0 0.06 0.0
0.01 0.06 0.0
0.02 0.06 0.0
0.03 0.06 0.0
0.04 0.06 0.0
0.05 0.06 0.0
0.06 0.06 0.0
0.07 0.06 0.0
0.08 0.06 0.0
0.09 0.06 0.0
0.1 0.06 0.0
0.11 0.06 0.0
0.12 0.06 0.0
0.13 0.06 0.0
0.14 0.06 0.0
0.15 0.06 0.0
0.16 0.06 0.0
0.17 0.06 0.0
0.18 0.06 0.0
0.19 0.06 0.0
0.2 0.06 0.0
0.21 0.06 0.0
0.22 0.06 0.0
0.23 0.06 0.0
0.24 0.06 0.0
0.25 0.06 0.0
0.26 0.06 0.0
0.27 0.06 0.0
0.28 0.06 0.0
0.29 0.06 0.0
0.3 0.06 0.0
0.31 0.06 0.0
0.32 0.06 0.0
0.33 0.06 0.0
0.34 0.06 0.0
0.35000000000000003 0.06 0.0
0.36 0.06 0.0
0.37 0.06 0.0
0.38 0.06 0.0
0.39 0.06 0.0
0.4 0.06 0.0
0.41000000000000003 0.06 0.0
0.42 0.06 0.0
0.43 0.06 0.0
0.44 0.06 0.0
0.45 0.06 0.0
0.46 0.06 0.0
[...]
POINT_DATA  10201
FIELD  FlowField  5
Density    1 10201  double
10.236605063989606
10.080338674549264
9.751571626240434
9.409885243075621
9.08262417566084
8.789183765491961
8.55576205642085
8.409354899549154
8.366102738419102
8.421921614867347
8.551783938943974
8.716089756145905
8.867513801534493
8.95529491336913
8.931149537072628
8.762179313856112
8.446450690194709
8.014775910623863
7.505161437228901
6.91653586663587
6.163013128522146
5.089216463999684
3.7637177968642828
2.7645636613728
2.403159253834775
2.3390634241499386
2.312839657641498
2.292298031744721
2.275802703785376
2.26292277317473
2.253295361069294
2.246621040021128
2.2427051229395616
2.2414927657811674
2.243062178481651
2.2475547709113233
2.2550698829317586
2.265584303038276
2.2789348145537067
2.2948549756681667
2.3130323324429436
2.333157996099863
2.3549576176738345
2.3782051197901297
2.402725129545985
2.4283898488627127
2.4551141783973653
2.48285111451735
2.5115883157485803
2.541346112187534
2.5721768581466717
2.6041654138116743
2.6374305005771865
2.672126648158221
2.708446414429772
2.746622500090556
2.7869293022309694
2.82968336730257
2.875242140685603
2.924000415935179
2.97638408469105
3.0328416015395474
3.0938368078741725
3.1598613920056637
3.23148919881033
3.3091430795477383
3.3928259367023776
3.4822502925184793
3.5769031489435283
3.6760142532891122
3.7786014226205196
3.8835056227955995
3.9894594251868405
4.095163714779824
4.199381516254126
4.301236368134349
4.400928506469486
4.500787882930892
4.606007312301251
4.723940200438031
4.861251557540393
5.019946599111368
5.194813502064936
5.374615444982027
5.5466386183363765
5.701318706354856
5.834235149028023
5.94542573651619
6.037589900874181
6.114423976709488
6.179522983009861
6.2358530669255545
6.285616106611345
6.330311324795657
6.370858323705548
6.407698747200096
6.440706956682358
6.469149115985561
6.4917589109518525
6.5067429095642435
6.512072296067969
9.739414258020755
9.575670780634177
9.231672191277376
8.873450706740428
8.527740563125077
8.216160679355989
7.970286133054747
7.823477894655884
7.79589924891092
7.881853803237718
8.048067910345054
8.24228997090832
8.403806819426705
8.471202708410383
8.392437512222369
8.14212057564322
7.7365941995423855
7.228619468214363
6.676000919923895
6.0979904934173295
5.437319732681665
4.562949310862208
3.4702774142210933
2.5675066830825086
2.1816704763170196
2.0999606838035385
2.0717061700333566
2.050176652083712
2.032683605024763
2.0187706938597407
2.008086787789755
2.000347260634147
1.9953680434516274
1.9930932994725854
1.9935851154954072
1.9969587234469632
2.003289509154101
2.012544619503714
2.0245708713691624
2.0391294283363335
2.0559469476326666
2.074758893389512
2.095335995440249
2.1174954492749984
2.141102252274545
2.1660657822753793
2.192334974043267
2.2198938529031995
2.2487582326010847
2.2789738410268616
2.310615807327693
2.343789385118715
2.3786317674515187
2.415314833702895
2.4540486267561072
2.4950852696508385
2.5387228850692596
2.585308880503511
2.6352417231933662
2.688970092050317
2.746988153831663
2.8098259443701563
2.878035465328571
2.952180780021794
3.032842215528329
3.1204633914521827
3.2151739305354945
3.3168006287569467
3.424750500809609
3.5379876995702677
3.6551870418298247
3.774799840004913
3.8951754981778812
4.01472167334912
4.1320863412239
4.246510241440211
4.358494987030876
4.4706392050807295
4.588036228648843
4.717303385193762
4.863824968343759
5.028336534372569
5.205116462073728
5.383511174200131
5.552080405878177
5.702541053917483
5.831351026851135
5.938991569652667
6.028305846723801
6.102975852665941
6.166524114823427
6.221836580961344
6.271043223293303
6.315581026454049
6.356315768293756
6.393644009321567
6.42740031480136
6.456761605168931
6.48030228956757
6.496008286773119
6.5016137023315
8.66683537037622
8.481134226988587
8.094024529928404
7.694747829750594
7.31057537403527
6.966906261420945
6.705250573199821
6.570900295122694
6.59006922934332
6.7486910012243495
6.98826038895091
7.222895365569551
7.36464123160062
7.343496011915525
7.122920669448502
6.713512901487578
6.173947939170233
5.588465183223144
5.030533396874497
4.53160289301585
4.063614784438266
3.536273939073657
2.861068418541121
2.1664219143146513
1.750889602706607
1.6297730456492667
1.6012652222250228
1.5834592518966955
1.5694534295242102
1.5586880232962614
1.5508429182773529
1.545670306317366
1.5430141988667399
1.5428257751913315
1.5451484671285969
1.550063802807336
1.5576207849517483
1.5677879870129106
1.5804488757907353
1.5954304901123109
1.6125421968145124
1.6316071627239075
1.6524808150754495
1.675057940486502
1.6992725586402402
1.7250943678193194
1.7525241218718899
1.7815892372711406
1.8123405597816946
1.8448504640736578
1.8792120925508031
1.9155399193950153
1.9539718163447002
1.994672836030471
2.0378409321951856
2.0837147473547217
2.132583372355053
2.1847975810915266
2.2407814467904696
2.3010424620739904
2.366177363619287
2.436869916898803
2.5138761705971766
2.59799249324112
2.6900012431082887
2.7905835158612327
2.900206925741428
3.0189891096221926
3.1464592928491
3.2814871964321783
3.4224060219628107
3.5671212123388276
3.713336757058166
3.858883148982125
4.002101136900005
4.142309370778435
4.280334304280995
4.418860794069294
4.562150720288347
4.714687836824407
4.878891953678014
5.053018652929311
5.2307493945883135
5.403089781795725
5.561534238294791
5.700612902474977
5.818671005653373
5.9171093237345085
5.999030262703336
6.0680346019837375
6.1274438695975615
6.17993317682514
6.22744698408648
6.271264982291526
6.312120263098305
6.350300650002121
6.385560709529581
6.416888155565416
6.442487361353126
6.459821438354254
6.466055746235224
7.586602071692166
7.3665655158502865
6.913739953979715
6.460447313695338
6.040010584197674
5.680409140711047
5.4296851398246835
5.34001817085622
5.434537051408799
5.675568624561651
5.964547555783433
6.180985734146822
6.2300066150597875
6.068082728780926
5.707054692703432
5.206344236140013
4.65232793045635
4.12742507077363
3.683261627948442
3.3289131191624937
3.033790325635105
2.7342092761575443
2.342165480913118
1.8416166298701304
1.4330372808095613
1.2716345897426995
1.244816847295344
1.237391059443851
1.2332365357143402
1.2315530619559338
1.2320768418803647
1.234620885533965
1.2390821183576874
1.2454497196380483
1.253788260576365
1.264191331890058
1.2767258678203222
1.2913971034199678
1.3081473557352121
1.326879137119453
1.3474845975699845
1.3698688081379105
1.3939632405352524
1.4197307158924086
1.447165062859653
1.4762882783166638
1.5071457979544343
1.5398003084002654
1.574327748127583
1.6108150908884202
1.649357574837323
1.6900567633412873
1.7330200134237157
1.7783620475018893
1.8262094939903268
1.876709338204886
1.9300421067490021
1.9864401898460897
2.0462108933715593
2.109762553635818
2.1776303593833357
2.250496511215819
2.329197235543594
2.414707394551021
2.508091252427889
2.6104051970808237
2.722552065828077
2.8450997790954595
2.978081165856162
3.120836483020002
3.2719652389434226
3.429424065409228
3.5907940680490733
3.753694889825551
3.9162809346636447
4.077725377551799
4.238540353521492
4.400503470857889
4.565970175634843
4.736581902512255
4.9118124864105095
5.088157640946101
5.259639601787665
5.419545660440684
5.562493643984918
5.6857675569313315
5.789472054714287
5.875795114296321
5.947976964844139
6.009432700887642
6.06319389462878
6.111650613367555
6.156504331599104
6.19883816678624
6.239230502725322
6.277853375117715
6.314403377081565
6.347708295899432
6.375557763601892
6.3947569090817025
6.401729091791847
6.663806370876415
6.401749845780249
5.868612296317099
5.356402749693535
4.913308191296142
4.568244004149915
4.368945277842775
4.361368785876381
4.545746072063351
4.842977030785797
5.116658428586671
5.242745761364153
5.162145188113726
4.88465985959256
4.467529373315473
3.9909613972898765
3.5328153576211667
3.1465751931880237
2.8504972843233465
2.6312034537189817
2.456278192563725
2.280524808792437
2.037073728330766
1.6681885032645147
1.2849535577851292
1.091163679000595
1.0604256207342262
1.0620560626892765
1.0665192417527902
1.072579944734009
1.0800500904472434
1.0888259506249336
1.0988829416164114
1.110279511379795
1.1231369908216626
1.1375949810599042
1.1537630864381723
1.1716942570004782
1.191387761885963
1.2128113648819925
1.235927092643613
1.2607111423043138
1.2871653772593403
1.3153198954394407
1.3452325013544997
1.3769874730976799
1.410691535110658
1.446468823003824
1.4844551366167147
1.524791624508454
1.5676180601676122
1.6130659031746366
1.6612516958394954
1.712271779549389
1.7661997954616644
1.8230888709453268
1.8829806308509038
1.9459230022804852
2.011997980565263
2.0813589299246904
2.154274587184614
2.231173906565613
2.312682621473527
2.3996395064821376
2.4930788083930286
2.5941649118777246
2.704069755930665
2.823792550716178
2.9539243735913585
3.094429559162335
3.244535702398779
3.402775282737668
3.5672016901641674
3.735751758346694
3.906670921437125
4.078867818224513
4.252037472767001
4.42641514771545
4.602136595566972
4.778390774773525
4.9527663250496055
5.121230495169208
5.278908075727478
5.421361928987844
5.545764132934731
5.65144673332367
5.739722708234303
5.813231903676797
5.87517546482598
5.928693621310564
5.976478895576513
6.020607475433509
6.062526598222155
6.103130456180072
6.142867062639337
6.181827433481668
6.219690833223027
6.255190742068828
6.285683621969146
6.307139806851074
6.315016963414798
5.897089120316069
5.590200764842903
4.973771566110857
4.412418876641199
3.975945828023086
3.6887196406723386
3.5841297082435166
3.680303871552045
3.9328117245917937
4.220501933573615
4.403686931732663
4.401224285817094
4.2123222919909225
3.888999151478254
3.5032375793173864
3.1243012641016317
2.802143066130098
2.558164059292899
2.3862901072746463
2.263876855437006
2.1641128991492424
2.0562898999498684
1.8895654328780953
1.5979686150915646
1.236398539719239
1.017669611456079
0.977306493197098
0.9834662980958668
0.9923879540153755
1.0022281024877626
1.0128751548578727
1.0243083269773656
1.0365846462683208
1.049835953527716
1.064241757252487
1.0799835838491672
1.0972023724052595
1.1159807798879937
1.1363529413061084
1.158329373320794
1.1819208379623212
1.207155051560303
1.2340881833335835
1.2628102599403022
1.2934454281584007
1.3261494457802558
1.361106237446676
1.3985244307702833
1.438630759751844
1.4816605993026382
1.527847757921723
1.5774123758556835
1.6305471304352233
1.6874026519553178
1.748073882455138
1.8125900473758414
1.8809117626462604
1.9529392341598468
2.0285350906435458
2.107563717453961
2.189945845600224
2.2757228377516125
2.3651203315167737
2.458596756228367
2.556861568231579
2.6608509599533168
2.771646609502847
2.8903321071917576
3.017801955199034
3.1545526414006955
3.30049318564293
3.45487718596496
3.6164198763104993
3.783540276212687
3.9546397674124267
4.128308699874724
4.3033532488749024
4.478590599042899
4.652470502245038
4.822706863035004
4.986166469426399
5.139185000956184
5.278264834225336
5.400880503676562
5.506044097621735
5.594419596314804
5.668009841655228
5.729608091683975
5.782233347693074
5.828694208085235
5.871330504360464
5.9119156766301
5.951672662856595
5.991350624772123
6.031315136544446
6.071611921632026
6.11190923998499
6.150839550574335
6.185213211194514
6.209869161648986
6.219002926724194
5.254462468956046
4.903325221341883
4.215641694596815
3.6379227056035157
3.253513268944355
3.065397361793008
3.072882327863291
3.2491839774329385
3.5050216418175677
3.7091217692085356
3.764563646206617
3.6533104973215873
3.416748855629642
3.1177210376746523
2.8162424020088435
2.5566833476238298
2.3606655675877577
2.226926807115359
2.1387667207114376
2.075388660009028
2.0187463331206477
1.9483437681461846
1.8230674139640242
1.576039093986609
1.2282681415145187
0.9893633859678278
0.9369412770957068
0.9441216664326958
0.9543522765067813
0.9650895370004412
0.97628832600664
0.9879951208458961
1.0003289122263619
1.013473806270357
1.0276440989065625
1.0430363921117407
1.0597947196748205
1.0780037968226006
1.0977061347895347
1.1189268491215636
1.1416983641462026
1.166079230015396
1.192163759064511
1.2200884165531265
1.250033502139479
1.2822206584725109
1.3169102022251398
1.3543973334690849
1.3950066042293399
1.4390838452160573
1.486984868272397
1.5390602814197227
1.5956360801154308
1.656990339500677
1.7233273763221089
1.7947521716311434
1.871249488325977
1.9526735870224943
2.0387550861915917
2.129130529532535
2.223396976243105
2.3211883768615174
2.4222635477088037
2.526589066607974
2.6343969368773132
2.746197100113435
2.862730221377872
2.984861782032855
3.1134444007650384
3.2491519747070354
3.3922998038657224
3.5427102834423745
3.699667371928322
3.861999010003405
4.028231512026518
4.1967036139289515
4.3655892121922095
4.532822896162585
4.695990382582008
4.8522995919468785
4.998742943340014
5.13247854872143
5.251332605101704
5.354237112465662
5.441430770429477
5.514358307727376
5.5753309635271595
5.627084292613715
5.672366920308595
5.713642536285869
5.752927934678389
5.79174735094706
5.831161899164733
5.871832640747882
5.914072340087534
5.957857222939726
6.002745076440649
6.047123598277862
6.087076784176216
6.116049596619756
6.126814340625684
4.718736654104838
4.331374469773473
3.6023321561604638
3.0534437157966225
2.757106139229178
2.6759279784951544
2.765892006647601
2.9593045452025555
3.150420355704468
3.2395637108678548
3.1897248496815616
3.0269489894500996
2.803705957951665
2.5712246997811015
2.3678053942436152
2.213825933843337
2.111149604330988
2.048009465539191
2.0076156058521053
1.9756907065811535
1.9417947258285533
1.8917056854316756
1.7900807910553265
1.570686023365396
1.2321250123027858
0.9765558667931448
0.9118003359257953
0.9182565700662254
0.9282957800201692
0.9386325352910214
0.9492672532510454
0.9602940232174715
0.9718706919241311
0.9842049103722477
0.9975168059682586
1.0119918123330023
1.0277536767167097
1.0448670375054483
1.0633595961388118
1.0832516762429316
1.1045821336031478
1.1274254125522714
1.1518991432570007
1.1781680553470626
1.2064466535108083
1.2370000689227416
1.2701437874558401
1.3062423033665957
1.3457060832199277
1.388985807555505
1.4365626972755303
1.4889336106813018
1.5465897162473135
1.6099880253446561
1.6795160605041368
1.7554515739238412
1.8379215174192938
1.9268671098106107
2.0220241336717875
2.122928368696102
2.228954026850719
2.339387365303511
2.4535287587308487
2.570806593923345
2.6908789217457256
2.813696642662607
2.93950728975362
3.06879171691653
3.202140517869046
3.3400964599168117
3.4830122107454007
3.630920496491177
3.7834169767282564
3.939609089539873
4.098145355656364
4.25728642658448
4.414966251473703
4.568839865531728
4.716357856993977
4.85491596704926
4.982106254856843
5.096041458872544
5.195666775821005
5.280952868408162
5.352898899233836
5.413345500780763
5.464663382120837
5.509411770649924
5.550048024342869
5.588732140820733
5.627231716334949
5.666901004676738
5.708688826284965
5.753152596939786
5.800467780735827
5.850419742204463
5.902318606315279
5.954161731891503
6.001166429545085
6.035253477297623
6.047863508643527
4.28823038462467
3.880336700815322
3.1454877514512685
2.654271851750502
2.44719407959063
2.4425141827519052
2.560669097705183
2.7146780441767606
2.815256670167071
2.810912388173767
2.708286027765078
2.547859216807953
2.3731523635682996
2.217026030889467
2.0980203716097634
2.0199754685743647
1.9751536473786233
1.9504411336022955
1.9336719676646015
1.9168391311273703
1.8943952848084007
1.8555794803420942
1.7687416570399246
1.5688346813732186
1.2379536279838383
0.9686187733967965
0.8920729899869739
0.8971969813483165
0.9065618628049272
0.9161216461167778
0.9259068337489896
0.9360428749653531
0.9467126473696308
0.9581305458579585
0.970501181394094
0.9839811792729294
0.9986593376221621
1.0145660357583834
1.031704879411473
1.050085484982417
1.069744580250046
1.0907570475105413
1.113243346045486
1.1373748290238472
1.1633777877917548
1.1915361791315195
1.222193773295737
1.255755788764548
1.2926893922047935
1.3335219305350239
1.3788354049098772
1.4292553776765802
1.4854323279743133
1.5480135786493299
1.617604529694303
1.6947193280436053
1.7797235080384817
1.8727745456109126
1.9737701907605594
2.082317688470207
2.197737735106944
2.3191133396337253
2.4453848103442004
2.575479266137183
2.708450330327981
2.8435960002982372
2.980524367247342
3.1191486215405906
3.25960936922998
3.4021410289319736
3.5469126261841613
3.6938815560325127
3.8426889426594704
3.992576199099231
4.1423385719429655
4.290357841260653
4.434690575804413
4.5731886381885865
4.703659576845662
4.824074439724594
4.93280864987638
5.028875028132919
5.1120903879720005
5.1831240439246615
5.243409486792142
5.2949436137363
5.340029324413525
5.38102425402587
5.42014363885705
5.459326221215412
5.500154069563049
5.543817207145923
5.591100518354651
5.642369579406131
5.697553408736227
5.756128237430527
5.817037999222449
5.877768266607425
5.9325863761334325
5.971941220222875
5.986339300465502
3.959483733259346
3.5455072669821113
2.827563503159562
2.395802065710104
2.2538486765227077
2.2843923884357116
2.3876863899899035
2.4806460448379744
2.5060169594815043
2.45114887026727
2.3414041530346013
2.2129997662975023
2.094763316622284
2.003530677503246
1.944363145138478
1.9126876701863367
1.8986523059232256
1.8920789426736815
1.8857253275928745
1.875762615199653
1.8592060500634227
1.8271604342609515
1.7507367900148532
1.5664867593552647
1.2432766193072444
0.9624612688361547
0.8747408200431845
0.8783914238314132
0.8870027810552765
0.8957581429096482
0.9047146866856675
0.9140203769450961
0.9238711712267429
0.9344787005557895
0.9460236110340678
0.9586208112586022
0.972313892325267
0.9870978588155885
1.0029539620184655
1.0198764488708112
1.0378890149734197
1.0570548072447683
1.077482705165914
1.0993330710227815
1.1228230291109096
1.1482306268772344
1.1758989608308814
1.2062405309349677
1.2397413313924401
1.2769636113910487
1.3185457809896137
1.3651974776721707
1.417687369250839
1.4768209552164582
1.5434056658117594
1.6182012910873493
1.70185561644066
1.7948284348151051
1.897311826256456
2.0091599780556555
2.129846070662222
2.2584642329900113
2.3937887792629002
2.5343902555933533
2.6787910126112076
2.8256280636794187
2.9737848270822536
3.122459666776988
3.271155442615295
3.4195956379679258
3.5675906472830126
3.7148883540606876
3.8610448194472498
4.005339140891266
4.146732084508068
4.283874364642713
4.415183443260577
4.538984801578757
4.653690837093043
4.757993833489212
4.8510535861133794
4.932645298187834
5.003231295973631
5.063936717516279
5.116434210753125
5.1627680620218275
5.205155361661321
5.245795796393448
5.286716587831798
5.329662384258645
5.376020143275344
5.426768627819998
5.482450959510422
5.543151600158163
5.608461195984301
5.677439698837684
5.748536123090961
5.818601244191526
5.880964995998538
5.924919094227043
5.940732882445365
3.717411318959451
3.3057738318061114
2.611482168693418
2.2257065582744486
2.1207816491550093
2.1556051080048624
2.2254251881261746
2.2644058245012424
2.245014611280435
2.175766552437272
2.083812977422887
1.9948695358989856
1.92483117242878
1.879586248629693
1.8569804257227105
1.8499118391273504
1.8501046331471342
1.8509964740922658
1.848829889384803
1.8420256831905062
1.8287716928383455
1.8013100643554614
1.733141212717177
1.5627342586878346
1.2477469979694642
0.9571677277153328
0.858714726116871
0.8608885290960581
0.8687901746985945
0.8768212480291504
0.8850664979838085
0.8936911489079516
0.902893392521717
0.91287016316925
0.9237733312192866
0.9356729496974678
0.9485661277378108
0.9624167486616199
0.9771842446948948
0.9928443403830587
1.0094034249464618
1.0269058897634802
1.0454390474225062
1.065139336915945
1.0861986555941479
1.1088692066238022
1.1334687211882684
1.1603866514560617
1.1900910422169932
1.2231351893146376
1.2601627361993928
1.3019093744737922
1.3491987422095608
1.4029294974849256
1.4640500465284831
1.5335173363325352
1.6122369490432475
1.7009840259205
1.8003087600207675
1.910436277868266
2.031177596440293
2.1618735307146486
2.301393469840803
2.4482028757081924
2.6004970648742134
2.756378710342209
2.91404062150987
3.0719113080027
3.2287309690488604
3.3835463215398986
3.53563538953474
3.6843905780715818
3.8291958134025843