# vtk DataFile Version 3.0 
shock_diffraction_time_series_540_.vtk
ASCII
DATASET UNSTRUCTURED_GRID
POINTS         10201 double
0.0 0.0 0.0
0.01 0.0 0.0
0.02 0.0 0.0
0.03 0.0 0.0
0.04 0.0 0.0
0.05 0.0 0.0
0.06 0.0 0.0
0.07 0.0 0.0
0.08 0.0 0.0
0.09 0.0 0.0
0.1 0.0 0.0
0.11 0.0 0.0
0.12 0.0 0.0
0.13 0.0 0.0
0.14 0.0 0.0
0.15 0.0 0.0
0.16 0.0 0.0
0.17 0.0 0.0
0.18 0.0 0.0
0.19 0.0 0.0
0.2 0.0 0.0
0.21 0.0 0.0
0.22 0.0 0.0
0.23 0.0 0.0
0.24 0.0 0.0
0.25 0.0 0.0
0.26 0.0 0.0
0.27 0.0 0.0
0.28 0.0 0.0
0.29 0.0 0.0
0.3 0.0 0.0
0.31 0.0 0.0
0.32 0.0 0.0
0.33 0.0 0.0
0.34 0.0 0.0
0.35000000000000003 0.0 0.0
0.36 0.0 0.0
0.37 0.0 0.0
0.38 0.0 0.0
0.39 0.0 0.0
0.4 0.0 0.0
0.41000000000000003 0.0 0.0
0.42 0.0 0.0
0.43 0.0 0.0
0.44 0.0 0.0
0.45 0.0 0.0
0.46 0.0 0.0
0.47000000000000003 0.0 0.0
0.48 0.0 0.0
0.49 0.0 0.0
0.5 0.0 0.0
0.51 0.0 0.0
0.52 0.0 0.0
0.53 0.0 0.0
0.54 0.0 0.0
0.55 0.0 0.0
0.56 0.0 0.0
0.5700000000000001 0.0 0.0
0.58 0.0 0.0
0.59 0.0 0.0
0.6 0.0 0.0
0.61 0.0 0.0
0.62 0.0 0.0
0.63 0.0 0.0
0.64 0.0 0.0
0.65 0.0 0.0
0.66 0.0 0.0
0.67 0.0 0.0
0.68 0.0 0.0
0.6900000000000001 0.0 0.0
0.7000000000000001 0.0 0.0
0.71 0.0 0.0
0.72 0.0 0.0
0.73 0.0 0.0
0.74 0.0 0.0
0.75 0.0 0.0
0.76 0.0 0.0
0.77 0.0 0.0
0.78 0.0 0.0
0.79 0.0 0.0
0.8 0.0 0.0
0.81 0.0 0.0
0.8200000000000001 0.0 0.0
0.8300000000000001 0.0 0.0
0.84 0.0 0.0
0.85 0.0 0.0
0.86 0.0 0.0
0.87 0.0 0.0
0.88 0.0 0.0
0.89 0.0 0.0
0.9 0.0 0.0
0.91 0.0 0.0
0.92 0.0 0.0
0.93 0.0 0.0
0.9400000000000001 0.0 0.0
0.9500000000000001 0.0 0.0
0.96 0.0 0.0
0.97 0.0 0.0
0.98 0.0 0.0
0.99 0.0 0.0
1.0 0.0 0.0
0.0 0.01 0.0
0.01 0.01 0.0
0.02 0.01 0.0
0.03 0.01 0.0
0.04 0.01 0.0
0.05 0.01 0.0
0.06 0.01 0.0
0.07 0.01 0.0
0.08 0.01 0.0
0.09 0.01 0.0
0.1 0.01 0.0
0.11 0.01 0.0
0.12 0.01 0.0
0.13 0.01 0.0
0.14 0.01 0.0
0.15 0.01 0.0
0.16 0.01 0.0
0.17 0.01 0.0
0.18 0.01 0.0
0.19 0.01 0.0
0.2 0.01 0.0
0.21 0.01 0.0
0.22 0.01 0.0
0.23 0.01 0.0
0.24 0.01 0.0
0.25 0.01 0.0
0.26 0.01 0.0
0.27 0.01 0.0
0.28 0.01 0.0
0.29 0.01 0.0
0.3 0.01 0.0
0.31 0.01 0.0
0.32 0.01 0.0
0.33 0.01 0.0
0.34 0.01 0.0
0.35000000000000003 0.01 0.0
0.36 0.01 0.0
0.37 0.01 0.0
0.38 0.01 0.0
0.39 0.01 0.0
0.4 0.01 0.0
0.41000000000000003 0.01 0.0
0.42 0.01 0.0
0.43 0.01 0.0
0.44 0.01 0.0
0.45 0.01 0.0
0.46 0.01 0.0
0.47000000000000003 0.01 0.0
0.48 0.01 0.0
0.49 0.01 0.0
0.5 0.01 0.0
0.51 0.01 0.0
0.52 0.01 0.0
0.53 0.01 0.0
0.54 0.01 0.0
0.55 0.01 0.0
0.56 0.01 0.0
0.5700000000000001 0.01 0.0
0.58 0.01 0.0
0.59 0.01 0.0
0.6 0.01 0.0
0.61 0.01 0.0
0.62 0.01 0.0
0.63 0.01 0.0
0.64 0.01 0.0
0.65 0.01 0.0
0.66 0.01 0.0
0.67 0.01 0.0
0.68 0.01 0.0
0.6900000000000001 0.01 0.0
0.7000000000000001 0.01 0.0
0.71 0.01 0.0
0.72 0.01 0.0
0.73 0.01 0.0
0.74 0.01 0.0
0.75 0.01 0.0
0.76 0.01 0.0
0.77 0.01 0.0
0.78 0.01 0.0
0.79 0.01 0.0
0.8 0.01 0.0
0.81 0.01 0.0
0.8200000000000001 0.01 0.0
0.8300000000000001 0.01 0.0
0.84 0.01 0.0
0.85 0.01 0.0
0.86 0.01 0.0
0.87 0.01 0.0
0.88 0.01 0.0
0.89 0.01 0.0
0.9 0.01 0.0
0.91 0.01 0.0
0.92 0.01 0.0
0.93 0.01 0.0
0.9400000000000001 0.01 0.0
0.9500000000000001 0.01 0.0
0.96 0.01 0.0
0.97 0.01 0.0
0.98 0.01 0.0
0.99 0.01 0.0
1.0 0.01 0.0
0.0 0.02 0.0
0.01 0.02 0.0
0.02 0.02 0.0
0.03 0.02 0.0
0.04 0.02 0.0
0.05 0.02 0.0
0.06 0.02 0.0
0.07 0.02 0.0
0.08 0.02 0.0
0.09 0.02 0.0
0.1 0.02 0.0
0.11 0.02 0.0
0.12 0.02 0.0
0.13 0.02 0.0
0.14 0.02 0.0
0.15 0.02 0.0
0.16 0.02 0.0
0.17 0.02 0.0
0.18 0.02 0.0
0.19 0.02 0.0
0.2 0.02 0.0
0.21 0.02 0.0
0.22 0.02 0.0
0.23 0.02 0.0
0.24 0.02 0.0
0.25 0.02 0.0
0.26 0.02 0.0
0.27 0.02 0.0
0.28 0.02 0.0
0.29 0.02 0.0
0.3 0.02 0.0
0.31 0.02 0.0
0.32 0.02 0.0
0.33 0.02 0.0
0.34 0.02 0.0
0.35000000000000003 0.02 0.0
0.36 0.02 0.0
0.37 0.02 0.0
0.38 0.02 0.0
0.39 0.02 0.0
0.4 0.02 0.0
0.41000000000000003 0.02 0.0
0.42 0.02 0.0
0.43 0.02 0.0
0.44 0.02 0.0
0.45 0.02 0.0
0.46 0.02 0.0
0.47000000000000003 0.02 0.0
0.48 0.02 0.0
0.49 0.02 0.0
0.5 0.02 0.0
0.51 0.02 0.0
0.52 0.02 0.0
0.53 0.02 0.0
0.54 0.02 0.0
0.55 0.02 0.0
0.56 0.02 0.0
0.5700000000000001 0.02 0.0
0.58 0.02 0.0
0.59 0.02 0.0
0.6 0.02 0.0
0.61 0.02 0.0
0.62 0.02 0.0
0.63 0.02 0.0
0.64 0.02 0.0
0.65 0.02 0.0
0.66 0.02 0.0
0.67 0.02 0.0
0.68 0.02 0.0
0.6900000000000001 0.02 0.0
0.7000000000000001 0.02 0.0
0.71 0.02 0.0
0.72 0.02 0.0
0.73 0.02 0.0
0.74 0.02 0.0
0.75 0.02 0.0
0.76 0.02 0.0
0.77 0.02 0.0
0.78 0.02 0.0
0.79 0.02 0.0
0.8 0.02 0.0
0.81 0.02 0.0
0.8200000000000001 0.02 0.0
0.8300000000000001 0.02 0.0
0.84 0.02 0.0
0.85 0.02 0.0
0.86 0.02 0.0
0.87 0.02 0.0
0.88 0.02 0.0
0.89 0.02 0.0
0.9 0.02 0.0
0.91 0.02 0.0
0.92 0.02 0.0
0.93 0.02 0.0
0.9400000000000001 0.02 0.0
0.9500000000000001 0.02 0.0
0.96 0.02 0.0
0.97 0.02 0.0
0.98 0.02 0.0
0.99 0.02 0.0
1.0 0.02 0.0
0.0 0.03 0.0
0.01 0.03 0.0
0.02 0.03 0.0
0.03 0.03 0.0
0.04 0.03 0.0
0.05 0.03 0.0
0.06 0.03 0.0
0.07 0.03 0.0
0.08 0.03 0.0
0.09 0.03 0.0
0.1 0.03 0.0
0.11 0.03 0.0
0.12 0.03 0.0
0.13 0.03 0.0
0.14 0.03 0.0
0.15 0.03 0.0
0.16 0.03 0.0
0.17 0.03 0.0
0.18 0.03 0.0
0.19 0.03 0.0
0.2 0.03 0.0
0.21 0.03 0.0
0.22 0.03 0.0
0.23 0.03 0.0
0.24 0.03 0.0
0.25 0.03 0.0
0.26 0.03 0.0
0.27 0.03 0.0
0.28 0.03 0.0
0.29 0.03 0.0
0.3 0.03 0.0
0.31 0.03 0.0
0.32 0.03 0.0
0.33 0.03 0.0
0.34 0.03 0.0
0.35000000000000003 0.03 0.0
0.36 0.03 0.0
0.37 0.03 0.0
0.38 0.03 0.0
0.39 0.03 0.0
0.4 0.03 0.0
0.41000000000000003 0.03 0.0
0.42 0.03 0.0
0.43 0.03 0.0
0.44 0.03 0.0
0.45 0.03 0.0
0.46 0.03 0.0
0.47000000000000003 0.03 0.0
0.48 0.03 0.0
0.49 0.03 0.0
0.5 0.03 0.0
0.51 0.03 0.0
0.52 0.03 0.0
0.53 0.03 0.0
0.54 0.03 0.0
0.55 0.03 0.0
0.56 0.03 0.0
0.5700000000000001 0.03 0.0
0.58 0.03 0.0
0.59 0.03 0.0
0.6 0.03 0.0
0.61 0.03 0.0
0.62 0.03 0.0
0.63 0.03 0.0
0.64 0.03 0.0
0.65 0.03 0.0
0.66 0.03 0.0
0.67 0.03 0.0
0.68 0.03 0.0
0.6900000000000001 0.03 0.0
0.7000000000000001 0.03 0.0
0.71 0.03 0.0
0.72 0.03 0.0
0.73 0.03 0.0
0.74 0.03 0.0
0.75 0.03 0.0
0.76 0.03 0.0
0.77 0.03 0.0
0.78 0.03 0.0
0.79 0.03 0.0
0.8 0.03 0.0
0.81 0.03 0.0
0.8200000000000001 0.03 0.0
0.8300000000000001 0.03 0.0
0.84 0.03 0.0
0.85 0.03 0.0
0.86 0.03 0.0
0.87 0.03 0.0
0.88 0.03 0.0
0.89 0.03 0.0
0.9 0.03 0.0
0.91 0.03 0.0
0.92 0.03 0.0
0.93 0.03 0.0
0.9400000000000001 0.03 0.0
0.9500000000000001 0.03 0.0
0.96 0.03 0.0
0.97 0.03 0.0
0.98 0.03 0.0
0.99 0.03 0.0
1.0 0.03 0.0
0.0 0.04 0.0
0.01 0.04 0.0
0.02 0.04 0.0
0.03 0.04 0.0
0.04 0.04 0.0
0.05 0.04 0.0
0.06 0.04 0.0
0.07 0.04 0.0
0.08 0.04 0.0
0.09 0.04 0.0
0.1 0.04 0.0
0.11 0.04 0.0
0.12 0.04 0.0
0.13 0.04 0.0
0.14 0.04 0.0
0.15 0.04 0.0
0.16 0.04 0.0
0.17 0.04 0.0
0.18 0.04 0.0
0.19 0.04 0.0
0.2 0.04 0.0
0.21 0.04 0.0
0.22 0.04 0.0
0.23 0.04 0.0
0.24 0.04 0.0
0.25 0.04 0.0
0.26 0.04 0.0
0.27 0.04 0.0
0.28 0.04 0.0
0.29 0.04 0.0
0.3 0.04 0.0
0.31 0.04 0.0
0.32 0.04 0.0
0.33 0.04 0.0
0.34 0.04 0.0
0.35000000000000003 0.04 0.0
0.36 0.04 0.0
0.37 0.04 0.0
0.38 0.04 0.0
0.39 0.04 0.0
0.4 0.04 0.0
0.41000000000000003 0.04 0.0
0.42 0.04 0.0
0.43 0.04 0.0
0.44 0.04 0.0
0.45 0.04 0.0
0.46 0.04 0.0
0.47000000000000003 0.04 0.0
0.48 0.04 0.0
0.49 0.04 0.0
0.5 0.04 0.0
0.51 0.04 0.0
0.52 0.04 0.0
0.53 0.04 0.0
0.54 0.04 0.0
0.55 0.04 0.0
0.56 0.04 0.0
0.5700000000000001 0.04 0.0
0.58 0.04 0.0
0.59 0.04 0.0
0.6 0.04 0.0
0.61 0.04 0.0
0.62 0.04 0.0
0.63 0.04 0.0
0.64 0.04 0.0
0.65 0.04 0.0
0.66 0.04 0.0
0.67 0.04 0.0
0.68 0.04 0.0
0.6900000000000001 0.04 0.0
0.7000000000000001 0.04 0.0
0.71 0.04 0.0
0.72 0.04 0.0
0.73 0.04 0.0
0.74 0.04 0.0
0.75 0.04 0.0
0.76 0.04 0.0
0.77 0.04 0.0
0.78 0.04 0.0
0.79 0.04 0.0
0.8 0.04 0.0
0.81 0.04 0.0
0.8200000000000001 0.04 0.0
0.8300000000000001 0.04 0.0
0.84 0.04 0.0
0.85 0.04 0.0
0.86 0.04 0.0
0.87 0.04 0.0
0.88 0.04 0.0
0.89 0.04 0.0
0.9 0.04 0.0
0.91 0.04 0.0
0.92 0.04 0.0
0.93 0.04 0.0
0.9400000000000001 0.04 0.0
0.9500000000000001 0.04 0.0
0.96 0.04 0.0
0.97 0.04 0.0
0.98 0.04 0.0
0.99 0.04 0.0
1.0 0.04 0.0
0.0 0.05 0.0
0.01 0.05 0.0
0.02 0.05 0.0
0.03 0.05 0.0
0.04 0.05 0.0
0.05 0.05 0.0
0.06 0.05 0.0
0.07 0.05 0.0
0.08 0.05 0.0
0.09 0.05 0.0
0.1 0.05 0.0
0.11 0.05 0.0
0.12 0.05 0.0
0.13 0.05 0.0
0.14 0.05 0.0
0.15 0.05 0.0
0.16 0.05 0.0
0.17 0.05 0.0
0.18 0.05 0.0
0.19 0.05 0.0
0.2 0.05 0.0
0.21 0.05 0.0
0.22 0.05 0.0
0.23 0.05 0.0
0.24 0.05 0.0
0.25 0.05 0.0
0.26 0.05 0.0
0.27 0.05 0.0
0.28 0.05 0.0
0.29 0.05 0.0
0.3 0.05 0.0
0.31 0.05 0.0
0.32 0.05 0.0
0.33 0.05 0.0
0.34 0.05 0.0
0.35000000000000003 0.05 0.0
0.36 0.05 0.0
0.37 0.05 0.0
0.38 0.05 0.0
0.39 0.05 0.0
0.4 0.05 0.0
0.41000000000000003 0.05 0.0
0.42 0.05 0.0
0.43 0.05 0.0
0.44 0.05 0.0
0.45 0.05 0.0
0.46 0.05 0.0
0.47000000000000003 0.05 0.0
0.48 0.05 0.0
0.49 0.05 0.0
0.5 0.05 0.0
0.51 0.05 0.0
0.52 0.05 0.0
0.53 0.05 0.0
0.54 0.05 0.0
0.55 0.05 0.0
0.56 0.05 0.0
0.5700000000000001 0.05 0.0
0.58 0.05 0.0
0.59 0.05 0.0
0.6 0.05 0.0
0.61 0.05 0.0
0.62 0.05 0.0
0.63 0.05 0.0
0.64 0.05 0.0
0.65 0.05 0.0
0.66 0.05 0.0
0.67 0.05 0.0
0.68 0.05 0.0
0.6900000000000001 0.05 0.0
0.7000000000000001 0.05 0.0
0.71 0.05 0.0
0.72 0.05 0.0
0.73 0.05 0.0
0.74 0.05 0.0
0.75 0.05 0.0
0.76 0.05 0.0
0.77 0.05 0.0
0.78 0.05 0.0
0.79 0.05 0.0
0.8 0.05 0.0
0.81 0.05 0.0
0.8200000000000001 0.05 0.0
0.8300000000000001 0.05 0.0
0.84 0.05 0.0
0.85 0.05 0.0
0.86 0.05 0.0
0.87 0.05 0.0
0.88 0.05 0.0
0.89 0.05 0.0
0.9 0.05 0.0
0.91 0.05 0.0
0.92 0.05 0.0
0.93 0.05 0.0
0.9400000000000001 0.05 0.0
0.9500000000000001 0.05 0.0
0.96 0.05 0.0
0.97 0.05 0.0
0.98 0.05 0.0
0.99 0.05 0.0
1.0 0.05 0.0
0.0 0.06 0.0
0.01 0.06 0.0
0.02 0.06 0.0
0.03 0.06 0.0
0.04 0.06 0.0
0.05 0.06 0.0
0.06 0.06 0.0
0.07 0.06 0.0
0.08 0.06 0.0
0.09 0.06 0.0
0.1 0.06 0.0
0.11 0.06 0.0
0.12 0.06 0.0
0.13 0.06 0.0
0.14 0.06 0.0
0.15 0.06 0.0
0.16 0.06 0.0
0.17 0.06 0.0
0.18 0.06 0.0
0.19 0.06 0.0
0.2 0.06 0.0
0.21 0.06 0.0
0.22 0.06 0.0
0.23 0.06 0.0
0.24 0.06 0.0
0.25 0.06 0.0
0.26 0.06 0.0
0.27 0.06 0.0
0.28 0.06 0.0
0.29 0.06 0.0
0.3 0.06 0.0
0.31 0.06 0.0
0.32 0.06 0.0
0.33 0.06 0.0
0.34 0.06 0.0
0.35000000000000003 0.06 0.0
0.36 0.06 0.0
0.37 0.06 0.0
0.38 0.06 0.0
0.39 0.06 0.0
0.4 0.06 0.0
0.41000000000000003 0.06 0.0
0.42 0.06 0.0
0.43 0.06 0.0
0.44 0.06 0.0
0.45 0.06 0.0
0.46 0.06 0.0
[...]
POINT_DATA  10201
FIELD  FlowField  5
Density    1 10201  double
5.791650161586749
5.707385279766832
5.4999036961120416
5.24148963257084
4.969692262702308
4.701348430523576
4.446792320923963
4.212299021399534
4.000871348355848
3.813181536243052
3.648422824838012
3.50506193083752
3.3814578306290772
3.276175196340705
3.1881261285167746
3.1166298244468935
3.0613119078606896
3.0219457590303302
2.9981516920529683
2.9892791649054065
2.9944723457541675
3.0126549019173936
3.0426158847716294
3.0831264562918594
3.1330273944984164
3.191274300234782
3.2569374537086695
3.3291828499832836
3.407250983334106
3.490431163082145
3.578032875138354
3.6693686813702975
3.763740436787449
3.8604234945898916
3.958680195840069
4.057778740479458
4.156997577844253
4.2556463486311005
4.353088920968436
4.44876601204244
4.5422405290679215
4.633232791464524
4.721631928166069
4.8074996940343935
4.891067029546084
4.972728498680243
5.053035809139256
5.132691750835659
5.212545741464631
5.293589633584441
5.376950408872504
5.463877255603009
5.555721981045509
5.653911708165923
5.759912717931831
5.875184515426557
6.0011236339621306
6.138997370665857
6.289868657303373
6.454514728865237
6.633344012554608
6.826316677454521
7.032872552426667
7.2518674737133795
7.481527599289096
7.719446989431312
7.96264412485698
8.207666804846472
8.450754958099848
8.688042503041519
8.915741811427848
9.130300065066383
9.328427422135611
9.506942404723633
9.662535076860493
9.791439770370452
9.88897729347875
9.948956706611266
9.962831438105942
9.918616397857692
9.799827930651885
9.584491514366047
9.244690264199864
8.747947162536633
8.061933955209003
7.164384078996974
6.059216143282593
4.797750153556276
3.49894324906284
2.346507148840521
1.5350203142332846
1.1364505155013627
1.0198003541580276
1.0019475308462
1.0001797713425573
1.0000167345739164
1.0000015701076954
1.0000001477804665
1.0000000139101899
1.0000000013139512
1.0000000002369211
5.738092713786962
5.644006456940753
5.417784941792515
5.145201929955363
4.865538108507122
4.593870610843334
4.339256782521969
4.10699197174257
3.8992772668037903
3.7160859935814106
3.556006659048246
3.4169995614769184
3.297041571008056
3.1944391057849004
3.1079511627860152
3.0368454523570954
2.9807833464649036
2.9396004560140376
2.9129661918020044
2.9003149452535855
2.900902562212936
2.9137424026717653
2.9376898458721907
2.971564286351187
3.0142355540969357
3.064669966270935
3.1219405918571725
3.185218293029286
3.253757473190437
3.326877053075912
3.4039385228485592
3.4843344081473595
3.567499595974628
3.6529095380811816
3.740073678162938
3.828533537264354
3.917842838012664
4.0075685464507105
4.097286193815937
4.18657546369237
4.275060449236814
4.3624570845515205
4.4485933648193985
4.533413562158662
4.616985964698836
4.699509932489949
4.781318829058013
4.862880895746321
4.944800463731355
5.027819734592319
5.112818486450956
5.2008086513440075
5.2929227296008685
5.390395243995136
5.494536085620312
5.606694597788514
5.728213483771512
5.860372142285469
6.004319909996411
6.161000995600725
6.331074436562033
6.514833219905127
6.7121250808560795
6.922275095617268
7.144017786209899
7.375460845689121
7.614094539658623
7.856840194047033
8.10015728054633
8.340199278477913
8.572976467495666
8.794526054356423
9.000948563786325
9.188263207663887
9.352175886127284
9.487713268630515
9.588706463584112
9.64712275122492
9.652158003401848
9.589195506041264
9.439250591793733
9.179311573407363
8.784265200503828
8.23178478599352
7.510589322155388
6.63013172284405
5.625612433332516
4.552422335483095
3.4787545357770533
2.4934356681967214
1.7175365821543558
1.2478429830919988
1.0549243803008503
1.0073710378201322
1.000740151144205
1.000070453500485
1.0000066587773206
1.000000627107568
1.0000000588457203
1.0000000055295546
1.0000000009909211
5.611949327700634
5.493344350201723
5.222282545622276
4.9184569669668425
4.623198290328273
4.346386969120404
4.093705893941727
3.8681276706954506
3.6700326815657602
3.4978490951541277
3.3488313917323804
3.2198290316404807
3.1079887698454147
3.011064304289147
2.927516138268284
2.856558507653233
2.7979816968410436
2.7517019729937
2.7174638297543425
2.6948889051744014
2.6834087303246195
2.682213789321085
2.690354845257078
2.7068493916707954
2.7307241317616016
2.761016907309541
2.7968205696518127
2.8373314311423385
2.8818593662353793
2.929823781888008
2.980744832849662
3.0342411599054664
3.0900436671337013
3.148001121486571
3.208117118955998
3.2705345502731062
3.3354133116760036
3.402881211143666
3.472979951180137
3.54560757818886
3.620551910286319
3.6975373154957603
3.7762627896110343
3.8564385599408224
3.937819721735194
4.020227551821834
4.103565857704346
4.187832393206423
4.273128226397332
4.359668402416659
4.447794096346631
4.537982052911937
4.630849651157773
4.727155563967936
4.827795227541817
4.933789872721849
5.0462676069418855
5.166434963708658
5.295537553747906
5.434809027734373
5.585408323259236
5.748345378768115
5.924394114286876
6.113989695718458
6.317112710875733
6.533174052242018
6.760909471618941
6.9982837046153215
7.242441568406308
7.489714159081714
7.735675950958779
7.97529210374052
8.20294538950842
8.412285343297615
8.59596729447027
8.745167306673332
8.848836895880664
8.892699473919764
8.858598956189411
8.725071333965863
8.469943329007318
8.07607810247877
7.5408324506013
6.887116634250443
6.166974737535017
5.445583123729937
4.769098483633353
4.139049907391082
3.5150629256722117
2.853881615687272
2.173177003222352
1.5819932767530014
1.2028773523976883
1.0441878815971877
1.0057455058206632
1.0005691543674278
1.0000537140559276
1.000005025451428
1.0000004679692107
1.0000000436185454
1.000000007754568
5.4557540076035655
5.305527473340349
4.9791652460224824
4.6401829701053305
4.32994269318056
4.051041969324141
3.8042192120674687
3.5892739558667
3.4043253616758435
3.2460223773239254
3.11013286363732
2.9923369764012238
2.8889528165754754
2.797220804042159
2.7154439258283705
2.6429989932205977
2.579830886302079
2.525897526984623
2.4811266738536135
2.4453625715668013
2.4181775543336856
2.398899166831775
2.3867307914553204
2.380860302581338
2.3805390674821827
2.385109816826016
2.3939569835967065
2.4063966539294053
2.42175050119657
2.4395117450497503
2.459364944018881
2.4811802888396373
2.5050155351756396
2.5311205109194663
2.559972455871357
2.5922149806032335
2.628498289643499
2.669437249179105
2.715494198850722
2.7668554596572794
2.8234843007032557
2.885160929560033
2.95149337792724
3.0219747386233546
3.0960986245382713
3.173420237112576
3.2535469917776183
3.3361341693142164
3.420893554716581
3.5076028370013903
3.5961226507142134
3.6864165003433365
3.77856929715936
3.872805097829859
3.9695042605649813
4.069219397314465
4.172688879602587
4.280845975193412
4.394820965526248
4.515932882481942
4.645666765768236
4.785631221512357
4.937489151880211
5.102852474481935
5.2831342947361115
5.479359092660514
5.6919294907154105
5.920348593852614
6.162939739523824
6.416579424580489
6.676473749420782
6.936092608872306
7.1870258392077355
7.4186704384635735
7.6177337522815805
7.767285436399648
7.846151609156788
7.829439630731835
7.691335530969135
7.412297120954584
6.9909373507471795
6.456982970900265
5.873858780671366
5.320028098076776
4.856577953080923
4.5032986972626645
4.233922433246945
3.987104071740306
3.688170531828903
3.2741233059576773
2.723108962823284
2.0935967760486083
1.5320071329908538
1.1779215267193248
1.0364473587529308
1.004469232098506
1.0004316820290526
1.0000401315450578
1.0000037047386425
1.00000034232434
1.0000000603620314
5.27844093714556
5.091940177208056
4.705344497505843
4.3320244971854995
4.009975289583792
3.7333255061864454
3.496548115673416
3.295499998857175
3.1257591583579845
2.9821641005344026
2.8591058729298626
2.7513337378966902
2.6545851729153753
2.5658637344047897
2.4836962241637957
2.407745502813661
2.338026994084121
2.27470410342426
2.2180478366422642
2.1681326374182364
2.1246986487050243
2.0872071162704
2.0549647300954343
2.027254142690838
2.003468448312966
1.9832069018776761
1.9662344314557014
1.95231830940959
1.941055353782502
1.9319088729695042
1.9245926193018124
1.919247772001969
1.9162911749814917
1.9163304995262869
1.9201054708894454
1.9283969687524987
1.9419338754662598
1.9613746890526507
1.9871938584598687
2.01960705599971
2.0586508319271077
2.104178924164701
2.155808238006622
2.2129717730265104
2.2750707238263708
2.341552825300175
2.4119386640069074
2.4858365424070885
2.5628880252477693
2.642732963091669
2.725029615216714
2.809477474986277
2.895841241689349
2.983976306123221
3.073857875861159
3.165614012844204
3.2595622606535737
3.3562488385779536
3.456488320061463
3.561400183102625
3.672436547046422
3.7913926102790025
3.9203876328843537
4.061799934577348
4.21813698490332
4.391822246627607
4.5848773634472
4.798480249753589
5.032416304225471
5.28441953486193
5.5494292511036445
5.818949204075099
6.080325243324425
6.31557380915935
6.5004594395082425
6.605062948664072
6.597197755527018
6.450727009776505
6.159792271999066
5.754015055511042
5.299754810895796
4.877708838028694
4.550165722376768
4.340382332179188
4.230977064647921
4.177759456008884
4.131248839274705
4.04977718309346
3.896548134833981
3.632755032197031
3.2231244773560435
2.66431167303182
2.031292970139744
1.482466315374111
1.1523014703399488
1.0289198855024655
1.0033310094320333
1.0003142457852598
1.0000288097233263
1.0000026396237862
1.0000004616976033
5.077893701732787
4.850385278146488
4.401566963382132
4.000481035262375
3.6741278713456214
3.406332473529431
3.184441206674613
3.000096624624414
2.84644137554387
2.7167845184588546
2.6046209466677412
2.5042645845433897
2.411299412100807
2.323030388727598
2.238435210917837
2.1573101743816725
2.0798785435300506
2.006743967722431
1.9385119978375251
1.8754804347496035
1.8175831655367787
1.7644672297376582
1.7156227894149547
1.670511225266043
1.628669573135399
1.589792301433027
1.5537989445956781
1.5208381407069347
1.491038455350111
1.4642948493038954
1.4404719071689471
1.4197769161559148
1.4027583673024449
1.3900379207435691
1.3822033946317305
1.3797584215693077
1.3830765727461891
1.3923863584915623
1.4077488816865782
1.4291001312657046
1.4563338398214618
1.4892888520823107
1.5276733788621588
1.5710666152475534
1.6190149399530895
1.6710898914208312
1.726928869692525
1.7862550875759216
1.8488624368558293
1.9145732708747931
1.9831723569126107
2.054408195733556
2.128031221104825
2.203817925480855
2.2815995524403103
2.3612979460956898
2.442969142174872
2.526854759603026
2.6134405313073175
2.7035200175963268
2.798259386589134
2.899255734994923
3.008576333229481
3.1287589077946762
3.2627445439950433
3.413705780420901
3.584719882705942
3.7782252751591545
3.995212554453272
4.234084351047614
4.489150231898419
4.748893173115462
4.9937265925231555
5.194455299788498
5.314241172755192
5.316790995021512
5.18265935695377
4.929068429527829
4.616042947189457
4.324217476711981
4.117621306552306
4.018912016950526
4.009025348543594
4.046934104637
4.09531965757985
4.132100984729253
4.144623753644805
4.120597964576868
4.042120605158174
3.8819562409744064
3.6038792645532003
3.174389163404231
2.5966016614792062
1.9585349517256283
1.4272896312830123
1.1259046761288958
1.0219210991819763
1.0023741741017425
1.0002194397905133
1.0000199648111077
1.0000034650660852
4.844649818998485
4.573749488838594
4.066233493909159
3.649387334843754
3.3295441471508216
3.078423174411764
2.8761187897886216
2.710414558200938
2.572537787831716
2.4549503670171027
2.3510053136106883
2.2551600269881784
2.163460446444959
2.0738782896396097
1.985667267896802
1.898864596011003
1.8142266777865426
1.7328124545055228
1.6555129749487065
1.5828507296905616
1.5149650362426565
1.4517074531612923
1.3927768415343145
1.3378441287774108
1.2866461206384483
1.239049414644953
1.1950897938611607
1.1549797141495808
1.1190683551798364
1.0877145525528042
1.061104667823912
1.0393352541842245
1.022595361987941
1.0111121025482595
1.0050330398054275
1.0043636798451308
1.0089598057435352
1.018545269032597
1.032750458637813
1.0511809928064406
1.0734873029427405
1.0993938478440992
1.1286643359524438
1.1610592234629435
1.1963557473867579
1.2343873496122901
1.275042693092991
1.3182386662568133
1.3639506867847355
1.4122316326035762
1.4631359798187766
1.5166561259961744
1.572736165345699
1.631303523756663
1.6922897153035903
1.7556575708034112
1.8214375478254867
1.8897740118309267
1.9609820450902367
2.035614686538265
2.1145390936866133
2.199017348804743
2.290782636994882
2.392092963717027
2.5057314303517333
2.634902904097604
2.782947540532842
2.9527519678466163
3.145709257504595
3.3600449401909884
3.588283906552009
3.8138149136043826
4.008381307453319
4.134427507240145
4.156835250951223
4.065229866210652
3.8941380160931987
3.7156608900855304
3.600711585802216
3.5808992125363734
3.641234062758394
3.7430548356103985
3.8527979991003374
3.9528453914547823
4.036144384168662
4.0994406248276
4.139510023007725
4.150678875905033
4.12235303633821
4.03612757656771
3.86326489860659
3.566163987267837
3.112692547981772
2.514483267399303
1.8749822195445827
1.3682373421522065
1.1001188139124536
1.0158315079709532
1.0016197047447002
1.000147824634439
1.0000254854547732
4.565341907418038
4.255237729678406
3.7019367615722865
3.285187033996553
2.983652894057408
2.756406245743658
2.577109525489457
2.430622320329694
2.307177834395649
2.1993830658873046
2.1011629564326317
2.0077228151366953
1.9160268743748223
1.8245627597499896
1.732933367789089
1.6418155051258414
1.552546240303458
1.4665323391195193
1.3848984480940523
1.3083463383605636
1.237174177027805
1.1713884674178476
1.110841608122395
1.0553503156752009
1.004777856978525
0.9590813006427882
0.9183287484442939
0.8826860789119554
0.8523706630664353
0.8275856896310395
0.8084840446934822
0.7950684409610494
0.7871646338767353
0.784542349361059
0.7869230577391941
0.7939207115125234
0.8050376185995956
0.8197003676870743
0.8373104622837972
0.8573022103338164
0.8791921993544195
0.9026077782763693
0.92729274686713
0.9530924447802821
0.9799231152932892
1.0077780783731312
1.0367321512688024
1.0669033567223842
1.0984265258087489
1.1314765396845825
1.1662837087238527
1.2030581074311533
1.2419541533638874
1.2831013881269022
1.3266179652032402
1.3726263501097227
1.4212767743592085
1.4727798944790718
1.52744994639382
1.5857595168461331
1.648406396935461
1.7163911626969792
1.7911000257206675
1.8743790838553
1.968570366337407
2.076452209382371
2.2009787856436467
2.3446420314607757
2.508204822026039
2.6884412451244675
2.8744936020421683
3.044420239621392
3.1666243495510686
3.2115544305157995
3.174537777725984
3.093633509804395
3.0350424805937846
3.049505925540955
3.1425215703429608
3.2852062396368518
3.444433285633613
3.599351967671093
3.7402559586543265
3.863184300338368
3.9666283093174948
4.049820428390048
4.111581049104476
4.149122125566803
4.156433316649484
4.1219942196904835
4.025860393846312
3.8373104238107385
3.5174070165804463
3.036614262764786
2.417960565971009
1.7824524171981495
1.307743642777809
1.0762637809082636
1.010876045682656
1.0010639381665976
1.0001834148271667
4.232506924077928
3.8954246552107405
3.3185795420103736
2.918434096912585
2.645186905583066
2.4466561618029083
2.2916815004252697
2.1635239209472634
2.0526464072129174
1.952649340075246
1.8585685568902073
1.7668001813601253
1.6751274297833918
1.5825802122552626
1.4895282255120743
1.3973409709924707
1.3077459366395752
1.222353284114238
1.1423803078678423
1.0685643273601353
1.0012174980639712
0.9403546845649573
0.8858314841604998
0.8374542555199417
0.795049802397686
0.758497870033516
0.7277338445936491
0.7027281897974256
0.6834503263308391
0.6698306968926353
0.6617400267565348
0.6589964694772669
0.661317323817136
0.6682778971070507
0.6793772399724933
0.6940636247607113
0.7117243598583209
0.731716227193577
0.7534026015858378
0.7761906622064132
0.7995645087871623
0.8231114194300435
0.8465403479031148
0.8696856900872205
0.8924868380230617
0.9149826014595759
0.937303144849194
0.9596343061409323
0.9821901253979698
1.005209847666756
1.0289755013911657
1.0537770611748483
1.0798787854749607
1.1075339432464892
1.1369920013998307
1.1685065631005058
1.2023488136496814
1.2388278444221206
1.2783192792398266
1.3213036875369053
1.3684160051767496
1.4205059352368978
1.4787058073706845
1.5444940485729104
1.6197247211321801
1.7065588461446095
1.8071709468014596
1.9230118678230115
2.0532793121647286
2.1921565903840783
2.3256201287870715
2.431482617689493
2.4879422362107433
2.492487271167715
2.476814242111262
2.492726930097649
2.5743506781929932
2.718251034425668
2.898904324140964
3.0916421774543843
3.2808201680857465
3.4579235092567253
3.618494778620508
3.7602879944707053
3.882279982450982
3.9840360650128597
4.065112875775618
4.124289482655861
4.158443785354652
4.160864146569846
4.118812213222046
4.01049630080376
3.8029857882172164
3.4563088072276944
2.945272676329937
2.3076631957494813
1.6834030663619903
1.248394955237759
1.0553935032653747
1.007139804439242
1.0012858117613876
3.8568186646107065
3.508767115483206
2.9329923568318215
2.562389447759319
2.3233572824521582
2.1551008183962113
2.0235361041632935
1.9118416310838033
1.8117091800520442
1.718202679398361
1.627823641840286
1.5380916345880542
1.447571938973799
1.3562012530427472
1.2651306970832619
1.1761372862657797
1.091091916479368
1.0115746165787445
0.938675296991189
0.8729676629132699
0.8146014539650095
0.7634443926333854
0.7192184286115954
0.6816006966095813
0.6502827428840482
0.6249944853472063
0.6055030706944815
0.5915963091804759
0.5830596100652286
0.5796549723143003
0.5811087823752009
0.5871100414112764
0.5973154323547378
0.6113044696249088
0.6285760443786871
0.648601082819616
0.6708299182525996
0.6946963900415064
0.7196278565237829
0.7450613103030428
0.7704695431518019
0.7953938146762306
0.8194814074046135
0.8425087658773953
0.8643811840871249
0.8851244226443078
0.9048585797300711
0.9237636496571495
0.9420550268997145
0.9599780581901544
0.9778075970436075
0.9958255094731663
1.0143097256405473
1.0335416196380791
1.0538089766187098
1.075410801932318
1.0986659952983187
1.1239264287386337
1.1515955936625124
1.1821539471928906
1.2161917754520641
1.25444906661364
1.297858078827725
1.3475750796066657
1.4049677589969345
1.4714855624414083
1.548274819285162
1.635287747562951
1.7295724300546014
1.8230760512594184
1.9022025128703626
1.953047394878645
1.9744812061884476
1.98962722581812
2.036361348133351
2.139517701569974
2.296549813919332
2.488833789369992
2.697400942439624
2.9086606696340276
3.113774173999705
3.3069860321008866
3.4845052375778076
3.6439162324665446
3.7838291285763264
3.9035781262845264
4.0028566827115855
4.081191983045997
4.137153828959444
4.1671453358098125
4.1635701288426334
4.11221375144185
3.9891301979409337
3.7590093141499383
3.3814377396800954
2.8379545581811034
2.1848319337387365
1.5808838177974545
1.1927489162254372
1.0384246714632401
1.0085521081520794
3.4680574687002146
3.1218401746713127
2.5647228264674293
2.22992899689967
2.0262583324418895
1.8867402984471067
1.7761228604919055
1.6786580767663857
1.5877343572988074
1.5001455816862945
1.4137846826120057
1.3271792313961477
1.2399302359856221
1.1528220853663367
1.0674182873491502
0.9855817771428115
0.9090445450869521
0.8391189252935892
0.7765841542952541
0.7217205346400665
0.6744309486243109
0.6343872476401694
0.6011571029959288
0.5742912731095036
0.5533705446274183
0.5380214365775332
0.5279119679780128
0.5227374334960773
0.5222039523593986
0.5260152724539457
0.5338656866707661
0.5454387794639675
0.560409813493395
0.5784414534139402
0.5991711943911955
0.6222232308795447
0.6472062562726124
0.6736803826962112
0.701140005369059
0.7290182500873716
0.7567181615101394
0.783676596911917
0.8094373053275318
0.8336928355573725
0.8562992172019315
0.8772572555097834
0.8966696133043524
0.9147046781320913
0.9315712846915478
0.9475076307617912
0.9627668109718874
0.9776022054731651
0.9922676090808363
1.0070203765378638
1.0221245092530795
1.0378561803624948
1.0545113805208524
1.0724155935666921
1.0919366015239835
1.1135006794021165
1.1376115810864595
1.1648698041022683
1.195984602407904
1.2317603058511188
1.2730171517396753
1.3203678576559388
1.3737047155636524
1.4312479526212307