# vtk DataFile Version 3.0 
shock_diffraction_time_series_439_.vtk
ASCII
DATASET UNSTRUCTURED_GRID
POINTS         10201 double
0.0 0.0 0.0
0.01 0.0 0.0
0.02 0.0 0.0
0.03 0.0 0.0
0.04 0.0 0.0
0.05 0.0 0.0
0.06 0.0 0.0
0.07 0.0 0.0
0.08 0.0 0.0
0.09 0.0 0.0
0.1 0.0 0.0
0.11 0.0 0.0
0.12 0.0 0.0
0.13 0.0 0.0
0.14 0.0 0.0
0.15 0.0 0.0
0.16 0.0 0.0
0.17 0.0 0.0
0.18 0.0 0.0
0.19 0.0 0.0
0.2 0.0 0.0
0.21 0.0 0.0
0.22 0.0 0.0
0.23 0.0 0.0
0.24 0.0 0.0
0.25 0.0 0.0
0.26 0.0 0.0
0.27 0.0 0.0
0.28 0.0 0.0
0.29 0.0 0.0
0.3 0.0 0.0
0.31 0.0 0.0
0.32 0.0 0.0
0.33 0.0 0.0
0.34 0.0 0.0
0.35000000000000003 0.0 0.0
0.36 0.0 0.0
0.37 0.0 0.0
0.38 0.0 0.0
0.39 0.0 0.0
0.4 0.0 0.0
0.41000000000000003 0.0 0.0
0.42 0.0 0.0
0.43 0.0 0.0
0.44 0.0 0.0
0.45 0.0 0.0
0.46 0.0 0.0
0.47000000000000003 0.0 0.0
0.48 0.0 0.0
0.49 0.0 0.0
0.5 0.0 0.0
0.51 0.0 0.0
0.52 0.0 0.0
0.53 0.0 0.0
0.54 0.0 0.0
0.55 0.0 0.0
0.56 0.0 0.0
0.5700000000000001 0.0 0.0
0.58 0.0 0.0
0.59 0.0 0.0
0.6 0.0 0.0
0.61 0.0 0.0
0.62 0.0 0.0
0.63 0.0 0.0
0.64 0.0 0.0
0.65 0.0 0.0
0.66 0.0 0.0
0.67 0.0 0.0
0.68 0.0 0.0
0.6900000000000001 0.0 0.0
0.7000000000000001 0.0 0.0
0.71 0.0 0.0
0.72 0.0 0.0
0.73 0.0 0.0
0.74 0.0 0.0
0.75 0.0 0.0
0.76 0.0 0.0
0.77 0.0 0.0
0.78 0.0 0.0
0.79 0.0 0.0
0.8 0.0 0.0
0.81 0.0 0.0
0.8200000000000001 0.0 0.0
0.8300000000000001 0.0 0.0
0.84 0.0 0.0
0.85 0.0 0.0
0.86 0.0 0.0
0.87 0.0 0.0
0.88 0.0 0.0
0.89 0.0 0.0
0.9 0.0 0.0
0.91 0.0 0.0
0.92 0.0 0.0
0.93 0.0 0.0
0.9400000000000001 0.0 0.0
0.9500000000000001 0.0 0.0
0.96 0.0 0.0
0.97 0.0 0.0
0.98 0.0 0.0
0.99 0.0 0.0
1.0 0.0 0.0
0.0 0.01 0.0
0.01 0.01 0.0
0.02 0.01 0.0
0.03 0.01 0.0
0.04 0.01 0.0
0.05 0.01 0.0
0.06 0.01 0.0
0.07 0.01 0.0
0.08 0.01 0.0
0.09 0.01 0.0
0.1 0.01 0.0
0.11 0.01 0.0
0.12 0.01 0.0
0.13 0.01 0.0
0.14 0.01 0.0
0.15 0.01 0.0
0.16 0.01 0.0
0.17 0.01 0.0
0.18 0.01 0.0
0.19 0.01 0.0
0.2 0.01 0.0
0.21 0.01 0.0
0.22 0.01 0.0
0.23 0.01 0.0
0.24 0.01 0.0
0.25 0.01 0.0
0.26 0.01 0.0
0.27 0.01 0.0
0.28 0.01 0.0
0.29 0.01 0.0
0.3 0.01 0.0
0.31 0.01 0.0
0.32 0.01 0.0
0.33 0.01 0.0
0.34 0.01 0.0
0.35000000000000003 0.01 0.0
0.36 0.01 0.0
0.37 0.01 0.0
0.38 0.01 0.0
0.39 0.01 0.0
0.4 0.01 0.0
0.41000000000000003 0.01 0.0
0.42 0.01 0.0
0.43 0.01 0.0
0.44 0.01 0.0
0.45 0.01 0.0
0.46 0.01 0.0
0.47000000000000003 0.01 0.0
0.48 0.01 0.0
0.49 0.01 0.0
0.5 0.01 0.0
0.51 0.01 0.0
0.52 0.01 0.0
0.53 0.01 0.0
0.54 0.01 0.0
0.55 0.01 0.0
0.56 0.01 0.0
0.5700000000000001 0.01 0.0
0.58 0.01 0.0
0.59 0.01 0.0
0.6 0.01 0.0
0.61 0.01 0.0
0.62 0.01 0.0
0.63 0.01 0.0
0.64 0.01 0.0
0.65 0.01 0.0
0.66 0.01 0.0
0.67 0.01 0.0
0.68 0.01 0.0
0.6900000000000001 0.01 0.0
0.7000000000000001 0.01 0.0
0.71 0.01 0.0
0.72 0.01 0.0
0.73 0.01 0.0
0.74 0.01 0.0
0.75 0.01 0.0
0.76 0.01 0.0
0.77 0.01 0.0
0.78 0.01 0.0
0.79 0.01 0.0
0.8 0.01 0.0
0.81 0.01 0.0
0.8200000000000001 0.01 0.0
0.8300000000000001 0.01 0.0
0.84 0.01 0.0
0.85 0.01 0.0
0.86 0.01 0.0
0.87 0.01 0.0
0.88 0.01 0.0
0.89 0.01 0.0
0.9 0.01 0.0
0.91 0.01 0.0
0.92 0.01 0.0
0.93 0.01 0.0
0.9400000000000001 0.01 0.0
0.9500000000000001 0.01 0.0
0.96 0.01 0.0
0.97 0.01 0.0
0.98 0.01 0.0
0.99 0.01 0.0
1.0 0.01 0.0
0.0 0.02 0.0
0.01 0.02 0.0
0.02 0.02 0.0
0.03 0.02 0.0
0.04 0.02 0.0
0.05 0.02 0.0
0.06 0.02 0.0
0.07 0.02 0.0
0.08 0.02 0.0
0.09 0.02 0.0
0.1 0.02 0.0
0.11 0.02 0.0
0.12 0.02 0.0
0.13 0.02 0.0
0.14 0.02 0.0
0.15 0.02 0.0
0.16 0.02 0.0
0.17 0.02 0.0
0.18 0.02 0.0
0.19 0.02 0.0
0.2 0.02 0.0
0.21 0.02 0.0
0.22 0.02 0.0
0.23 0.02 0.0
0.24 0.02 0.0
0.25 0.02 0.0
0.26 0.02 0.0
0.27 0.02 0.0
0.28 0.02 0.0
0.29 0.02 0.0
0.3 0.02 0.0
0.31 0.02 0.0
0.32 0.02 0.0
0.33 0.02 0.0
0.34 0.02 0.0
0.35000000000000003 0.02 0.0
0.36 0.02 0.0
0.37 0.02 0.0
0.38 0.02 0.0
0.39 0.02 0.0
0.4 0.02 0.0
0.41000000000000003 0.02 0.0
0.42 0.02 0.0
0.43 0.02 0.0
0.44 0.02 0.0
0.45 0.02 0.0
0.46 0.02 0.0
0.47000000000000003 0.02 0.0
0.48 0.02 0.0
0.49 0.02 0.0
0.5 0.02 0.0
0.51 0.02 0.0
0.52 0.02 0.0
0.53 0.02 0.0
0.54 0.02 0.0
0.55 0.02 0.0
0.56 0.02 0.0
0.5700000000000001 0.02 0.0
0.58 0.02 0.0
0.59 0.02 0.0
0.6 0.02 0.0
0.61 0.02 0.0
0.62 0.02 0.0
0.63 0.02 0.0
0.64 0.02 0.0
0.65 0.02 0.0
0.66 0.02 0.0
0.67 0.02 0.0
0.68 0.02 0.0
0.6900000000000001 0.02 0.0
0.7000000000000001 0.02 0.0
0.71 0.02 0.0
0.72 0.02 0.0
0.73 0.02 0.0
0.74 0.02 0.0
0.75 0.02 0.0
0.76 0.02 0.0
0.77 0.02 0.0
0.78 0.02 0.0
0.79 0.02 0.0
0.8 0.02 0.0
0.81 0.02 0.0
0.8200000000000001 0.02 0.0
0.8300000000000001 0.02 0.0
0.84 0.02 0.0
0.85 0.02 0.0
0.86 0.02 0.0
0.87 0.02 0.0
0.88 0.02 0.0
0.89 0.02 0.0
0.9 0.02 0.0
0.91 0.02 0.0
0.92 0.02 0.0
0.93 0.02 0.0
0.9400000000000001 0.02 0.0
0.9500000000000001 0.02 0.0
0.96 0.02 0.0
0.97 0.02 0.0
0.98 0.02 0.0
0.99 0.02 0.0
1.0 0.02 0.0
0.0 0.03 0.0
0.01 0.03 0.0
0.02 0.03 0.0
0.03 0.03 0.0
0.04 0.03 0.0
0.05 0.03 0.0
0.06 0.03 0.0
0.07 0.03 0.0
0.08 0.03 0.0
0.09 0.03 0.0
0.1 0.03 0.0
0.11 0.03 0.0
0.12 0.03 0.0
0.13 0.03 0.0
0.14 0.03 0.0
0.15 0.03 0.0
0.16 0.03 0.0
0.17 0.03 0.0
0.18 0.03 0.0
0.19 0.03 0.0
0.2 0.03 0.0
0.21 0.03 0.0
0.22 0.03 0.0
0.23 0.03 0.0
0.24 0.03 0.0
0.25 0.03 0.0
0.26 0.03 0.0
0.27 0.03 0.0
0.28 0.03 0.0
0.29 0.03 0.0
0.3 0.03 0.0
0.31 0.03 0.0
0.32 0.03 0.0
0.33 0.03 0.0
0.34 0.03 0.0
0.35000000000000003 0.03 0.0
0.36 0.03 0.0
0.37 0.03 0.0
0.38 0.03 0.0
0.39 0.03 0.0
0.4 0.03 0.0
0.41000000000000003 0.03 0.0
0.42 0.03 0.0
0.43 0.03 0.0
0.44 0.03 0.0
0.45 0.03 0.0
0.46 0.03 0.0
0.47000000000000003 0.03 0.0
0.48 0.03 0.0
0.49 0.03 0.0
0.5 0.03 0.0
0.51 0.03 0.0
0.52 0.03 0.0
0.53 0.03 0.0
0.54 0.03 0.0
0.55 0.03 0.0
0.56 0.03 0.0
0.5700000000000001 0.03 0.0
0.58 0.03 0.0
0.59 0.03 0.0
0.6 0.03 0.0
0.61 0.03 0.0
0.62 0.03 0.0
0.63 0.03 0.0
0.64 0.03 0.0
0.65 0.03 0.0
0.66 0.03 0.0
0.67 0.03 0.0
0.68 0.03 0.0
0.6900000000000001 0.03 0.0
0.7000000000000001 0.03 0.0
0.71 0.03 0.0
0.72 0.03 0.0
0.73 0.03 0.0
0.74 0.03 0.0
0.75 0.03 0.0
0.76 0.03 0.0
0.77 0.03 0.0
0.78 0.03 0.0
0.79 0.03 0.0
0.8 0.03 0.0
0.81 0.03 0.0
0.8200000000000001 0.03 0.0
0.8300000000000001 0.03 0.0
0.84 0.03 0.0
0.85 0.03 0.0
0.86 0.03 0.0
0.87 0.03 0.0
0.88 0.03 0.0
0.89 0.03 0.0
0.9 0.03 0.0
0.91 0.03 0.0
0.92 0.03 0.0
0.93 0.03 0.0
0.9400000000000001 0.03 0.0
0.9500000000000001 0.03 0.0
0.96 0.03 0.0
0.97 0.03 0.0
0.98 0.03 0.0
0.99 0.03 0.0
1.0 0.03 0.0
0.0 0.04 0.0
0.01 0.04 0.0
0.02 0.04 0.0
0.03 0.04 0.0
0.04 0.04 0.0
0.05 0.04 0.0
0.06 0.04 0.0
0.07 0.04 0.0
0.08 0.04 0.0
0.09 0.04 0.0
0.1 0.04 0.0
0.11 0.04 0.0
0.12 0.04 0.0
0.13 0.04 0.0
0.14 0.04 0.0
0.15 0.04 0.0
0.16 0.04 0.0
0.17 0.04 0.0
0.18 0.04 0.0
0.19 0.04 0.0
0.2 0.04 0.0
0.21 0.04 0.0
0.22 0.04 0.0
0.23 0.04 0.0
0.24 0.04 0.0
0.25 0.04 0.0
0.26 0.04 0.0
0.27 0.04 0.0
0.28 0.04 0.0
0.29 0.04 0.0
0.3 0.04 0.0
0.31 0.04 0.0
0.32 0.04 0.0
0.33 0.04 0.0
0.34 0.04 0.0
0.35000000000000003 0.04 0.0
0.36 0.04 0.0
0.37 0.04 0.0
0.38 0.04 0.0
0.39 0.04 0.0
0.4 0.04 0.0
0.41000000000000003 0.04 0.0
0.42 0.04 0.0
0.43 0.04 0.0
0.44 0.04 0.0
0.45 0.04 0.0
0.46 0.04 0.0
0.47000000000000003 0.04 0.0
0.48 0.04 0.0
0.49 0.04 0.0
0.5 0.04 0.0
0.51 0.04 0.0
0.52 0.04 0.0
0.53 0.04 0.0
0.54 0.04 0.0
0.55 0.04 0.0
0.56 0.04 0.0
0.5700000000000001 0.04 0.0
0.58 0.04 0.0
0.59 0.04 0.0
0.6 0.04 0.0
0.61 0.04 0.0
0.62 0.04 0.0
0.63 0.04 0.0
0.64 0.04 0.0
0.65 0.04 0.0
0.66 0.04 0.0
0.67 0.04 0.0
0.68 0.04 0.0
0.6900000000000001 0.04 0.0
0.7000000000000001 0.04 0.0
0.71 0.04 0.0
0.72 0.04 0.0
0.73 0.04 0.0
0.74 0.04 0.0
0.75 0.04 0.0
0.76 0.04 0.0
0.77 0.04 0.0
0.78 0.04 0.0
0.79 0.04 0.0
0.8 0.04 0.0
0.81 0.04 0.0
0.8200000000000001 0.04 0.0
0.8300000000000001 0.04 0.0
0.84 0.04 0.0
0.85 0.04 0.0
0.86 0.04 0.0
0.87 0.04 0.0
0.88 0.04 0.0
0.89 0.04 0.0
0.9 0.04 0.0
0.91 0.04 0.0
0.92 0.04 0.0
0.93 0.04 0.0
0.9400000000000001 0.04 0.0
0.9500000000000001 0.04 0.0
0.96 0.04 0.0
0.97 0.04 0.0
0.98 0.04 0.0
0.99 0.04 0.0
1.0 0.04 0.0
0.0 0.05 0.0
0.01 0.05 0.0
0.02 0.05 0.0
0.03 0.05 0.0
0.04 0.05 0.0
0.05 0.05 0.0
0.06 0.05 0.0
0.07 0.05 0.0
0.08 0.05 0.0
0.09 0.05 0.0
0.1 0.05 0.0
0.11 0.05 0.0
0.12 0.05 0.0
0.13 0.05 0.0
0.14 0.05 0.0
0.15 0.05 0.0
0.16 0.05 0.0
0.17 0.05 0.0
0.18 0.05 0.0
0.19 0.05 0.0
0.2 0.05 0.0
0.21 0.05 0.0
0.22 0.05 0.0
0.23 0.05 0.0
0.24 0.05 0.0
0.25 0.05 0.0
0.26 0.05 0.0
0.27 0.05 0.0
0.28 0.05 0.0
0.29 0.05 0.0
0.3 0.05 0.0
0.31 0.05 0.0
0.32 0.05 0.0
0.33 0.05 0.0
0.34 0.05 0.0
0.35000000000000003 0.05 0.0
0.36 0.05 0.0
0.37 0.05 0.0
0.38 0.05 0.0
0.39 0.05 0.0
0.4 0.05 0.0
0.41000000000000003 0.05 0.0
0.42 0.05 0.0
0.43 0.05 0.0
0.44 0.05 0.0
0.45 0.05 0.0
0.46 0.05 0.0
0.47000000000000003 0.05 0.0
0.48 0.05 0.0
0.49 0.05 0.0
0.5 0.05 0.0
0.51 0.05 0.0
0.52 0.05 0.0
0.53 0.05 0.0
0.54 0.05 0.0
0.55 0.05 0.0
0.56 0.05 0.0
0.5700000000000001 0.05 0.0
0.58 0.05 0.0
0.59 0.05 0.0
0.6 0.05 0.0
0.61 0.05 0.0
0.62 0.05 0.0
0.63 0.05 0.0
0.64 0.05 0.0
0.65 0.05 0.0
0.66 0.05 0.0
0.67 0.05 0.0
0.68 0.05 0.0
0.6900000000000001 0.05 0.0
0.7000000000000001 0.05 0.0
0.71 0.05 0.0
0.72 0.05 0.0
0.73 0.05 0.0
0.74 0.05 0.0
0.75 0.05 0.0
0.76 0.05 0.0
0.77 0.05 0.0
0.78 0.05 0.0
0.79 0.05 0.0
0.8 0.05 0.0
0.81 0.05 0.0
0.8200000000000001 0.05 0.0
0.8300000000000001 0.05 0.0
0.84 0.05 0.0
0.85 0.05 0.0
0.86 0.05 0.0
0.87 0.05 0.0
0.88 0.05 0.0
0.89 0.05 0.0
0.9 0.05 0.0
0.91 0.05 0.0
0.92 0.05 0.0
0.93 0.05 0.0
0.9400000000000001 0.05 0.0
0.9500000000000001 0.05 0.0
0.96 0.05 0.0
0.97 0.05 0.0
0.98 0.05 0.0
0.99 0.05 0.0
1.0 0.05 0.0
0.0 0.06 0.0
0.01 0.06 0.0
0.02 0.06 0.0
0.03 0.06 0.0
0.04 0.06 0.0
0.05 0.06 0.0
0.06 0.06 0.0
0.07 0.06 0.0
0.08 0.06 0.0
0.09 0.06 0.0
0.1 0.06 0.0
0.11 0.06 0.0
0.12 0.06 0.0
0.13 0.06 0.0
0.14 0.06 0.0
0.15 0.06 0.0
0.16 0.06 0.0
0.17 0.06 0.0
0.18 0.06 0.0
0.19 0.06 0.0
0.2 0.06 0.0
0.21 0.06 0.0
0.22 0.06 0.0
0.23 0.06 0.0
0.24 0.06 0.0
0.25 0.06 0.0
0.26 0.06 0.0
0.27 0.06 0.0
0.28 0.06 0.0
0.29 0.06 0.0
0.3 0.06 0.0
0.31 0.06 0.0
0.32 0.06 0.0
0.33 0.06 0.0
0.34 0.06 0.0
0.35000000000000003 0.06 0.0
0.36 0.06 0.0
0.37 0.06 0.0
0.38 0.06 0.0
0.39 0.06 0.0
0.4 0.06 0.0
0.41000000000000003 0.06 0.0
0.42 0.06 0.0
0.43 0.06 0.0
0.44 0.06 0.0
0.45 0.06 0.0
0.46 0.06 0.0
[...]
POINT_DATA  10201
FIELD  FlowField  4
Density    1 10201  double
3.610218064604326
3.5314156715851004
3.3541302022573483
3.1520456982419227
2.9441037916415285
2.738295416361224
2.5407030246450666
2.355386821500759
2.1846771149055026
2.0294502589452597
1.8896152077924289
1.7645330267535884
1.6533065632330903
1.554961552876027
1.4685501725123862
1.3932029649820654
1.3281490297526273
1.272719787944884
1.226345587490333
1.188549081105382
1.1589377590578906
1.1371980133118007
1.1230917768690964
1.1164559244817236
1.1172040520282214
1.1253300306206957
1.1409129644695808
1.164120469775348
1.1951886392325126
1.2343751644209275
1.281908900794675
1.337944286422446
1.4025200451710171
1.4755593577110215
1.5570134184276578
1.6469328773674161
1.7453548891701107
1.8522056466268526
1.9672321831225692
2.0899467307891726
2.219586305452469
2.355092536198401
2.4951184301553218
2.6380568674195137
2.78208461218538
2.925221451765698
3.0653990045226873
3.2005294459678284
3.328560767356953
3.4475015840160763
3.5553950462024
3.6502173894294794
3.729671406922213
3.7908389541444416
3.8296515797679733
3.8401463356213092
3.8135159842815214
3.7371146128947235
3.5939601591986916
3.364097767252364
3.0305268712023175
2.5931672468508022
2.090218849317776
1.6097207257061619
1.256249661872733
1.0741194112761892
1.0143506798347315
1.0021502408027843
1.00029370720633
1.000038389029366
1.000004851540269
1.0000005954398086
1.0000000712083355
1.0000000083216483
1.0000000009527152
1.000000000107086
1.000000000011839
1.000000000001289
1.0000000000001381
1.0000000000000144
1.0000000000000013
1.0
1.0
1.0
1.0
1.0
1.0
1.0
1.0
1.0
1.0
1.0
1.0
1.0
1.0
1.0
1.0
1.0
1.0
1.0
1.0
3.5689198578056027
3.48453715933977
3.2944557084326656
3.0785631191352425
2.858676952074658
2.643502197942625
2.439061144673609
2.249053079083893
2.0754020618227598
1.9185980030954501
1.7782135239321022
1.6533382264482464
1.5428640159347824
1.4456538526299667
1.360631170581632
1.286820340026475
1.2233593959611506
1.1694989073910205
1.124595141237986
1.088101269477567
1.059558998475963
1.0385924829719833
1.0249052162093117
1.0182798778489848
1.018580683689046
1.0257576645023307
1.0398525084707082
1.061004288434346
1.0894437173041354
1.1254689059770318
1.169394230035939
1.2214897525948927
1.2819349506782567
1.3507994110016592
1.4281050373639759
1.5139289047568718
1.6084189132984745
1.7116863727779947
1.8236858073738973
1.944144246020975
2.0725084801623326
2.207914361852189
2.3491790061099813
2.494812498702037
2.6430489633665983
2.791900025082485
2.939225273523525
3.0828099025070705
3.220438842274237
3.3499516065954626
3.4692583567607964
3.5762940777010814
3.6688833449403058
3.7444828032125623
3.7997623982855275
3.8299872861039774
3.8281813935657
3.7841424685607588
3.6836200305506743
3.5085309882986944
3.2401324629742954
2.8682098768808224
2.408021795136859
1.9170924631785085
1.4878118597599501
1.198042066101694
1.0569753937341482
1.011087361690493
1.0016173511415185
1.0002118953113381
1.0000265722435588
1.0000032305068154
1.0000003824946986
1.0000000442465382
1.0000000050140712
1.0000000005578902
1.0000000000610658
1.0000000000065863
1.0000000000007006
1.0000000000000735
1.0000000000000075
1.0000000000000007
1.0
1.0
1.0
1.0
1.0
1.0
1.0
1.0
1.0
1.0
1.0
1.0
1.0
1.0
1.0
1.0
1.0
1.0
1.0
3.485434494814699
3.389199613235621
3.1721899108531586
2.92777031334752
2.6838816395498317
2.4505992512150945
2.2336045688293362
2.035663966893373
1.8577332480198296
1.6994205699000278
1.559560699761951
1.436661412541815
1.3291681192000269
1.2356018684144876
1.154619215301052
1.0850294175395914
1.0257908979970338
0.9759989616924101
0.9348711669331959
0.9017335474176414
0.876009570852256
0.8572127000988657
0.8449426198103517
0.8388847564959797
0.8388125030680539
0.8445916208909291
0.8561865448268633
0.8736684989330816
0.897224953969994
0.9271651211253663
0.9639007535891145
1.007894718566934
1.0595836865079409
1.1193186009351803
1.1873446486376276
1.263859018127072
1.349131564677692
1.4435488788326478
1.5474850054373515
1.6611305867681776
1.7844032032125354
1.9168892039092091
2.0578084681116975
2.2059997569270995
2.3599267930035226
2.5177077877919345
2.6771699760002994
2.8359295558004147
2.9914912397545352
3.1413506041195935
3.283080794437624
3.414383446935386
3.5330792706239174
3.6370099979166857
3.723817567027202
3.7905605351456453
3.83312053294192
3.845360975589552
3.818055670412436
3.7377933583085077
3.5865599582368866
3.3437951483088737
2.9942127437611608
2.5442089184564627
2.041899881954316
1.5784792957844187
1.2462604185260973
1.0741879937354673
1.0148564593549811
1.002131187740098
1.0002686265881082
1.000032384014173
1.0000037946919504
1.0000004342601696
1.0000000486804603
1.000000005358467
1.0000000005803504
1.0000000000619509
1.0000000000065272
1.0000000000006795
1.0000000000000697
1.000000000000007
1.0000000000000007
1.0
1.0
1.0
1.0
1.0
1.0
1.0
1.0
1.0
1.0
1.0
1.0
1.0
1.0
1.0
1.0
1.0
1.0
3.399001868253274
3.289614317594205
3.0433457280340095
2.7692242138724685
2.5019135266000023
2.2525492091465686
2.025896405962439
1.8233438975098197
1.6445956324397728
1.4881889056001558
1.3521136422859907
1.2342394756643569
1.1325373817019826
1.0451744683001407
0.9705392354636707
0.907233286994751
0.8540496046068918
0.8099476765970679
0.7740302835873951
0.7455240114369821
0.7237642669364813
0.7081848116217402
0.6983114235104856
0.6937590730053103
0.6942319307885138
0.6995257273063302
0.7095323788180545
0.7242471317457755
0.7437785333442453
0.7683612835985902
0.7983711458253319
0.8343208663199735
0.8768089511347921
0.9264254157731409
0.9836875243222429
1.049032211727507
1.122859131082003
1.2056487421598288
1.298039540690556
1.4006879848363751
1.5140490126894506
1.6382593786009343
1.7730770647811123
1.9178437428035695
2.0714609693615906
2.232382679903053
2.398636878114699
2.5678836000170207
2.7375056553268253
2.9047235491519774
3.066723750347066
3.220779840312242
3.3643392170449955
3.4950496568881206
3.6106959986412193
3.709012649604813
3.787329159422052
3.841998008930066
3.8675510824818975
3.8555674656746435
3.7933789905853907
3.663178129607432
3.44314228325836
3.1138164999876996
2.673493227414233
2.1610859691578836
1.6662913902043095
1.2941575595481796
1.0918530954851082
1.01883791046424
1.0026643744696206
1.0003237655099155
1.00003759551094
1.0000042546219061
1.0000004715466049
1.0000000513241674
1.000000005497692
1.00000000058059
1.000000000060539
1.0000000000062406
1.0000000000006366
1.0000000000000644
1.0000000000000062
1.0000000000000004
1.0
1.0
1.0
1.0
1.0
1.0
1.0
1.0
1.0
1.0
1.0
1.0
1.0
1.0
1.0
1.0
1.0
3.308068877921403
3.1843532286325007
2.9071097359575395
2.603320988137305
2.314637415686188
2.052548501604644
1.8201156289032618
1.6168995448681145
1.441108472026077
1.2900773958720753
1.1609014574403262
1.0508055092823392
0.9573000278061732
0.8782210454318248
0.8117153677906566
0.7562048818316657
0.7103466606556008
0.6729961379110919
0.6431758472111792
0.6200500795770081
0.6029050660900281
0.5911341386149143
0.5842272900906427
0.5817644547100892
0.5834118119688009
0.5889207019409514
0.5981292527779631
0.6109672512054035
0.6274648336950351
0.6477652420699842
0.6721414003711046
0.7010157967958903
0.7349729895169437
0.7747134584826758
0.8209487534336042
0.8743444133143783
0.9355328864502019
1.0051276651888084
1.08382776274193
1.172531205549489
1.2721794381689715
1.383493429164415
1.5068445632269396
1.6421985430700148
1.7890628453940483
1.9464397618129285
2.112804929057812
2.286122497845842
2.463900936721883
2.643292167478326
2.8212264638865845
2.99456560314788
3.160253964526398
3.315442591134455
3.4575535140291667
3.584251515697571
3.693288091374239
3.7821747539076567
3.8476306607967574
3.8847419903562677
3.8857892229668356
3.8388087104964215
3.7263302360802513
3.5257197091065757
3.2143084163903044
2.783815054673269
2.264991501286284
1.7448391130096619
1.3381256122708585
1.1084202019721536
1.022610268409327
1.0031531611262798
1.0003700546022787
1.0000414743809904
1.0000045423463386
1.0000004885363125
1.0000000517245389
1.0000000054010494
1.0000000005570544
1.0000000000568203
1.0000000000057379
1.0000000000005742
1.0000000000000564
1.0000000000000049
1.0000000000000004
1.0
1.0
1.0
1.0
1.0
1.0
1.0
1.0
1.0
1.0
1.0
1.0
1.0
1.0
1.0
1.0
3.2117677892458705
3.0726770499359066
2.763391889143689
2.431196803548366
2.1245335819805145
1.8540949640188957
1.6203349665719569
1.4206287355605507
1.2514993512684172
1.1090245000921373
0.9894224439993389
0.8893181497471836
0.8058117107510934
0.736455503946374
0.6791980616018747
0.6323224725534844
0.594390633855055
0.5641964300338137
0.5407272698579584
0.5231324068894617
0.5106968415938963
0.5028202751906391
0.4990008533123498
0.49882323119898897
0.5019502849351003
0.508118021828114
0.5171338453571965
0.5288788544648904
0.5433148783290406
0.56049648155395
0.5805875828143902
0.6038820794336289
0.6308280708299244
0.6620499504517334
0.6983072556710004
0.7403829925687987
0.7890627462398209
0.8451667467431019
0.9095132689967289
0.9830198985203551
1.0668466127577267
1.162211180743072
1.2700913406985315
1.391105607168499
1.5254590090187574
1.6728652257592813
1.8324709816610163
2.002811912554552
2.1818151873053466
2.366856349043557
2.55486698192474
2.7424854500397293
2.9262371928028212
3.102719048129849
3.2687574022288186
3.4215091173772674
3.5584690756712725
3.6773447589698396
3.775756632716952
3.8507011762290717
3.8977110714952934
3.9096571505901077
3.8752007185087356
3.777245450479306
3.5926582484922855
3.29635833441511
2.874815408316893
2.351779183904874
1.8112530019672346
1.3755845313274768
1.1224987799148776
1.0257471977287147
1.003531779583734
1.0004009195636716
1.0000434649897991
1.0000046171541705
1.0000004828845008
1.0000000498279122
1.0000000050808087
1.0000000005125915
1.0000000000512208
1.000000000005074
1.0000000000004983
1.000000000000048
1.0000000000000044
1.0000000000000004
1.0
1.0
1.0
1.0
1.0
1.0
1.0
1.0
1.0
1.0
1.0
1.0
1.0
1.0
1.0
3.1090490414315743
2.953784790936911
2.612309889075876
2.2544036475669214
1.934435035226954
1.6607379266002145
1.4303064414489028
1.2381366702848435
1.0789761604901682
0.9476856202658553
0.8396889579610604
0.7510974303266513
0.6786766287046276
0.6197590002874427
0.5721496199181498
0.5340434381077931
0.503957837507428
0.4806780697352147
0.46321149212531976
0.4507476110342633
0.44262303143087317
0.43829189324684215
0.43730246139840373
0.4392796512660806
0.4439125206733908
0.45094587735940134
0.4601759532014694
0.47145083966803897
0.4846764194465466
0.49982789705325453
0.5169662384898196
0.536258551133113
0.5580018631918151
0.582650494037908
0.6108415898021327
0.6433448923196545
0.6809732483976474
0.7246175881290956
0.7752532855323578
0.8338692300082867
0.90160213179313
0.9798717411673676
1.070139762394234
1.1736224994687188
1.291206953823579
1.4233688672288372
1.5700589437844168
1.730602266239831
1.9036311334197211
2.087070094699993
2.2781855748689726
2.4737013628368576
2.6699694766470405
2.863176231061494
3.0495590949422815
3.225602185737979
3.3881726155325245
3.534560900068022
3.662390005697401
3.7693303938497964
3.8525722739658126
3.9079994345909888
3.9289646436176886
3.9046463041746393
3.8182711202852038
3.6463504406973053
3.361935793316663
2.9473532414277828
2.4207137908261585
1.8635496951411987
1.4044788227547094
1.1329003236924424
1.0278736162616378
1.003744271614253
1.000411639206162
1.0000432695348545
1.0000044684017166
1.0000004553990056
1.000000045886326
1.000000004576933
1.0000000004523917
1.0000000000443485
1.0000000000043143
1.0000000000004166
1.00000000000004
1.0000000000000038
1.0000000000000002
1.0
1.0
1.0
1.0
1.0
1.0
1.0
1.0
1.0
1.0
1.0
1.0
1.0
1.0
2.9988703210610845
2.827043123169735
2.4544428987098312
2.0750641946455706
1.7474644496733518
1.4758673112835026
1.253245594240637
1.0721623026181168
0.925630727801348
0.8074246054466875
0.712307790377034
0.6359913582460501
0.574996192905142
0.5265068396981825
0.48824759482687097
0.4583858461358783
0.43545682691598414
0.41830121511292323
0.4060090147897924
0.39786733936069585
0.39331338849170494
0.3918952197261922
0.3932417709566285
0.39704145691409337
0.40302734420313513
0.41096718677351995
0.4206579035504096
0.4319252385159017
0.4446294578125788
0.4586770907822467
0.4740376091598096
0.4907635063383689
0.5090128188824727
0.5290741913726045
0.55139582128421
0.5766031641739958
0.6054312816524458
0.6387110422815285
0.6774225060845145
0.7226419339017174
0.77550011450489
0.8373520455535893
0.9098478526080744
0.9946440847526143
1.0931885515527706
1.206652392473769
1.33580338676331
1.480856555885285
1.6413419664876905
1.8160154640138968
2.0028270659664726
2.1989605490068307
2.4009516556689072
2.604875533883564
2.806582197663994
3.0019478298037927
3.187105944570169
3.3586207522808156
3.5135649551349943
3.6494442117292456
3.7639248181976894
3.8543321188777098
3.9168214896126203
3.945118607643879
3.9287946514525363
3.8512982306555736
3.6887951618206887
3.4128102344181186
3.002428292203258
2.471563655618487
1.9004302074743629
1.4233324372944918
1.1387609009634432
1.028731060711673
1.003757940070681
1.0004005516900136
1.0000409221488311
1.0000041179600956
1.0000004098385626
1.0000000404008178
1.0000000039486923
1.000000000382968
1.000000000036882
1.000000000003529
1.0000000000003353
1.0000000000000313
1.0000000000000027
1.0000000000000002
1.0
1.0
1.0
1.0
1.0
1.0
1.0
1.0
1.0
1.0
1.0
1.0
1.0
2.880465150226089
2.69225870003689
2.291027862563797
1.8958475058013806
1.5668524740729721
1.3025166047684198
1.0916652975863845
0.9244842552261509
0.7924335276954698
0.6883992657682687
0.6066497820267126
0.5426198933844287
0.4926794550627777
0.4539427190164633
0.42412644030691266
0.4014450381777219
0.3845267039135444
0.372338077913803
0.36411212471107324
0.3592802891206078
0.3574132914458764
0.3581744171327661
0.3612862014893573
0.36650827722978385
0.37362278827764794
0.38242464722126956
0.39271597407578795
0.40430575010461745
0.417015907439909
0.4306939166616294
0.4452303420598831
0.4605791050695576
0.47677888999582474
0.49397543396942817
0.5124458368488398
0.5326267659077603
0.5550975296111733
0.5805533773702162
0.609850330356786
0.6440112240270539
0.6841669328204709
0.7315766999194789
0.7878070110574584
0.8546780541691827
0.9339950968116626
1.0274419030170947
1.1364778389071144
1.2621686540927126
1.4050074076515555
1.5647512073003174
1.7403006532783274
1.9296501170402574
2.129920391768567
2.337477829061001
2.5481364026989466
2.7574194794156006
2.960846664703702
3.1542035596752083
3.3337533804924298
3.4963403740031005
3.6393265503523926
3.760347201968788
3.8568210361072133
3.9251018052162308
3.9591832630172776
3.9488952628884544
3.8777671015328523
3.7215470140210027
3.4504162625148562
3.0409534079424563
2.5043615658329226
1.921144505379517
1.4312642954864996
1.1396171671903634
1.028219723441121
1.0035714072820743
1.0003694855861827
1.000036779054977
1.0000036148529503
1.0000003520592184
1.0000000340160702
1.0000000032631737
1.0000000003110063
1.000000000029465
1.000000000002776
1.0000000000002596
1.0000000000000238
1.000000000000002
1.0
1.0
1.0
1.0
1.0
1.0
1.0
1.0
1.0
1.0
1.0
1.0
1.0
2.7535262431027823
2.5498474512429574
2.1240256633778407
1.7198008390259756
1.3956819539077367
1.1431764818319359
0.9472497537428616
0.79589515610321
0.6793056186438934
0.5897165769086699
0.5210724455915842
0.4686545260057606
0.42877828429674486
0.3985764237733252
0.3758472912601195
0.3589398532223027
0.34665330426660196
0.3381413525747369
0.3328210495197162
0.3302910725403738
0.3302648986258498
0.3325217312263456
0.3368741701622731
0.34314839825182675
0.35117175314198207
0.360764207239801
0.37173316462171013
0.3838732437801925
0.39697294829662094
0.41082853763838356
0.4252631435413336
0.44014798353367546
0.4554233157452342
0.47111837686002206
0.4873712713735425
0.5044518799686419
0.5227661018784714
0.5428404562750242
0.5653550861574421
0.5911712120991932
0.6213096749987275
0.6569317514829336
0.6994320153524194
0.750540887264096
0.8121772869110665
0.8862925773167661
0.9748020726423877
1.0794380255472928
1.201558139637811
1.34193508674145
1.5005601755875753
1.6764932449113474
1.8677869249231134
2.071510286310353
2.283873644167952
2.5004442695299867
2.7164337479724363
2.9270184655065314
3.1276475648891755
3.314292545947202
3.483564275859745
3.632674950552728
3.7592197009215784
3.8606756617997005
3.9335305255870825
3.971944369261411
3.965863996949536
3.898729978287162
3.745741532561672
3.475809175718555
3.0636332647385176
2.519240171536568
1.9253781846649973
1.4279759001773702
1.135439110934014
1.0264131901835056
1.003214705358121
1.000323254144958
1.0000314280660176
1.000003023839669
1.0000002887689523
1.000000027395897
1.0000000025836235
1.0000000002423282
1.000000000022615
1.0000000000021003
1.0000000000001936
1.0000000000000173
1.0000000000000013
1.0
1.0
1.0
1.0
1.0
1.0
1.0
1.0
1.0
1.0
1.0
1.0
2.61835615720549
2.4009414120538644
1.956066232885363
1.5500875895787876
1.2365982800229225
0.999620782193736
0.8207913742655605
0.686243503777414
0.5852449984699031
0.5096235371130059
0.4531645597300361
0.4111176355555034
0.379850264118657
0.35661762361795707
0.3393989312386043
0.3267616915135141
0.31773569454816697
0.3116947207573655
0.3082507338386793
0.3071656890233082
0.308284149684513
0.31148706387443553
0.31666369121404925
0.3236959078243615
0.3324486710961649
0.34276274756983705
0.35444949190779373
0.36729030193336165
0.3810436688914426
0.39546059707464865
0.4103060002872937
0.42538182386851936
0.4405485219460174
0.4557435522249773
0.47099749605984775
0.4864509052428729
0.5023596870580639
0.5190901414574981
0.5371449156456911
0.5571897148100794
0.5800568403389671
0.6067467239175135
0.6384596082312362
0.6767126983294485
0.7233183758010687
0.7802630149529506
0.8496570211056516
0.9336306311663591
1.034167837861458
1.1528975419359035
1.29085989180702
1.4482760317220253
1.6243645812105438
1.8172425884253558
2.023934398698011
2.2405009077361697
2.462274055305868
2.684168734270285
2.901035851558899
3.1080106854522893
3.3007855187925745
3.4757462371008723
3.6299681643944055
3.761003248939564
3.866359144769601
3.9425992033798334
3.983952583114017
3.980334708555038
3.914903646384346
3.7621298440966324
3.4896611124372274
3.0709021420108473
2.516334079771357
1.9131832731982503
1.4137335687532955
1.1266231770239072
1.0235430287094267
1.0027414815837121
1.0002684093011456
1.0000255497200756
1.000002411664311
1.000000226258127
1.0000000211127074
1.0000000019603692
1.0000000001811993
1.0000000000166778
1.0000000000015283
1.000000000000139
1.0000000000000124
1.0000000000000009
1.0
1.0
1.0
1.0
1.0
1.0
1.0
1.0
1.0
1.0
1.0
2.475959031104336
2.2473912070453426
1.7902123721717302
1.3896684537909652
1.0915937701503455
0.8727934187647843
0.7121956639324393
0.5945271368842961
0.5084838677755483
0.4457168784643182
0.4000135309635763
0.3667188708949166
0.34236337005024237
0.32443033414244976
0.3111691087043059
0.3014231546519296
0.2944772014212682
0.2899239638081957
0.28755391242211303
0.28726944062391224
0.2890228266752316
0.29277613369500594
0.298478903238942
0.3060570124061759
0.3154057835809739
0.3263832548910115
0.3388040099767779
0.3524374099048636
0.36701452602944556
0.3822452482954121
0.3978427198808472
0.4135494775402656
0.42916061988059667
0.444542052734905
0.45964392961010125
0.4745122515533343
0.489288987909719
0.5042113947885403
0.5196308343121729
0.5360310970356928
0.5540429148370636
0.5744613028228487
0.5982702583906058
0.6267323174406795
0.6614220898534392
0.7041755608633818
0.757067577432557
0.8223565546158664
0.9023661707898648
0.9993095919744404
1.1150629516047879
1.2509080757440132
1.4072762529248664
1.5835329508562497
1.7778520820193204
1.9872132067924555
2.207531060607195
2.4339088530167015
2.6609793699344673
2.8832914006148105
3.095691925572182
3.2936132726906777
3.4732403491942345
3.6315339589367204
3.7660056119081453
3.874173892330157
3.952625781052703
3.995559816148633
3.9927011554186684
3.9267101522511
3.771112696568677
3.492269636911473
3.0628974897533263
2.4957424653736084
1.8849566466928256
1.389349285153412
1.1139478497331234
1.0199575818376385
1.002215990554014
1.0002117069774286
1.0000197760330045
1.0000018350095128