# vtk DataFile Version 3.0 
shock_diffraction_time_series_217_.vtk
ASCII
DATASET UNSTRUCTURED_GRID
POINTS         10201 double
0.0 0.0 0.0
0.01 0.0 0.0
0.02 0.0 0.0
0.03 0.0 0.0
0.04 0.0 0.0
0.05 0.0 0.0
0.06 0.0 0.0
0.07 0.0 0.0
0.08 0.0 0.0
0.09 0.0 0.0
0.1 0.0 0.0
0.11 0.0 0.0
0.12 0.0 0.0
0.13 0.0 0.0
0.14 0.0 0.0
0.15 0.0 0.0
0.16 0.0 0.0
0.17 0.0 0.0
0.18 0.0 0.0
0.19 0.0 0.0
0.2 0.0 0.0
0.21 0.0 0.0
0.22 0.0 0.0
0.23 0.0 0.0
0.24 0.0 0.0
0.25 0.0 0.0
0.26 0.0 0.0
0.27 0.0 0.0
0.28 0.0 0.0
0.29 0.0 0.0
0.3 0.0 0.0
0.31 0.0 0.0
0.32 0.0 0.0
0.33 0.0 0.0
0.34 0.0 0.0
0.35000000000000003 0.0 0.0
0.36 0.0 0.0
0.37 0.0 0.0
0.38 0.0 0.0
0.39 0.0 0.0
0.4 0.0 0.0
0.41000000000000003 0.0 0.0
0.42 0.0 0.0
0.43 0.0 0.0
0.44 0.0 0.0
0.45 0.0 0.0
0.46 0.0 0.0
0.47000000000000003 0.0 0.0
0.48 0.0 0.0
0.49 0.0 0.0
0.5 0.0 0.0
0.51 0.0 0.0
0.52 0.0 0.0
0.53 0.0 0.0
0.54 0.0 0.0
0.55 0.0 0.0
0.56 0.0 0.0
0.5700000000000001 0.0 0.0
0.58 0.0 0.0
0.59 0.0 0.0
0.6 0.0 0.0
0.61 0.0 0.0
0.62 0.0 0.0
0.63 0.0 0.0
0.64 0.0 0.0
0.65 0.0 0.0
0.66 0.0 0.0
0.67 0.0 0.0
0.68 0.0 0.0
0.6900000000000001 0.0 0.0
0.7000000000000001 0.0 0.0
0.71 0.0 0.0
0.72 0.0 0.0
0.73 0.0 0.0
0.74 0.0 0.0
0.75 0.0 0.0
0.76 0.0 0.0
0.77 0.0 0.0
0.78 0.0 0.0
0.79 0.0 0.0
0.8 0.0 0.0
0.81 0.0 0.0
0.8200000000000001 0.0 0.0
0.8300000000000001 0.0 0.0
0.84 0.0 0.0
0.85 0.0 0.0
0.86 0.0 0.0
0.87 0.0 0.0
0.88 0.0 0.0
0.89 0.0 0.0
0.9 0.0 0.0
0.91 0.0 0.0
0.92 0.0 0.0
0.93 0.0 0.0
0.9400000000000001 0.0 0.0
0.9500000000000001 0.0 0.0
0.96 0.0 0.0
0.97 0.0 0.0
0.98 0.0 0.0
0.99 0.0 0.0
1.0 0.0 0.0
0.0 0.01 0.0
0.01 0.01 0.0
0.02 0.01 0.0
0.03 0.01 0.0
0.04 0.01 0.0
0.05 0.01 0.0
0.06 0.01 0.0
0.07 0.01 0.0
0.08 0.01 0.0
0.09 0.01 0.0
0.1 0.01 0.0
0.11 0.01 0.0
0.12 0.01 0.0
0.13 0.01 0.0
0.14 0.01 0.0
0.15 0.01 0.0
0.16 0.01 0.0
0.17 0.01 0.0
0.18 0.01 0.0
0.19 0.01 0.0
0.2 0.01 0.0
0.21 0.01 0.0
0.22 0.01 0.0
0.23 0.01 0.0
0.24 0.01 0.0
0.25 0.01 0.0
0.26 0.01 0.0
0.27 0.01 0.0
0.28 0.01 0.0
0.29 0.01 0.0
0.3 0.01 0.0
0.31 0.01 0.0
0.32 0.01 0.0
0.33 0.01 0.0
0.34 0.01 0.0
0.35000000000000003 0.01 0.0
0.36 0.01 0.0
0.37 0.01 0.0
0.38 0.01 0.0
0.39 0.01 0.0
0.4 0.01 0.0
0.41000000000000003 0.01 0.0
0.42 0.01 0.0
0.43 0.01 0.0
0.44 0.01 0.0
0.45 0.01 0.0
0.46 0.01 0.0
0.47000000000000003 0.01 0.0
0.48 0.01 0.0
0.49 0.01 0.0
0.5 0.01 0.0
0.51 0.01 0.0
0.52 0.01 0.0
0.53 0.01 0.0
0.54 0.01 0.0
0.55 0.01 0.0
0.56 0.01 0.0
0.5700000000000001 0.01 0.0
0.58 0.01 0.0
0.59 0.01 0.0
0.6 0.01 0.0
0.61 0.01 0.0
0.62 0.01 0.0
0.63 0.01 0.0
0.64 0.01 0.0
0.65 0.01 0.0
0.66 0.01 0.0
0.67 0.01 0.0
0.68 0.01 0.0
0.6900000000000001 0.01 0.0
0.7000000000000001 0.01 0.0
0.71 0.01 0.0
0.72 0.01 0.0
0.73 0.01 0.0
0.74 0.01 0.0
0.75 0.01 0.0
0.76 0.01 0.0
0.77 0.01 0.0
0.78 0.01 0.0
0.79 0.01 0.0
0.8 0.01 0.0
0.81 0.01 0.0
0.8200000000000001 0.01 0.0
0.8300000000000001 0.01 0.0
0.84 0.01 0.0
0.85 0.01 0.0
0.86 0.01 0.0
0.87 0.01 0.0
0.88 0.01 0.0
0.89 0.01 0.0
0.9 0.01 0.0
0.91 0.01 0.0
0.92 0.01 0.0
0.93 0.01 0.0
0.9400000000000001 0.01 0.0
0.9500000000000001 0.01 0.0
0.96 0.01 0.0
0.97 0.01 0.0
0.98 0.01 0.0
0.99 0.01 0.0
1.0 0.01 0.0
0.0 0.02 0.0
0.01 0.02 0.0
0.02 0.02 0.0
0.03 0.02 0.0
0.04 0.02 0.0
0.05 0.02 0.0
0.06 0.02 0.0
0.07 0.02 0.0
0.08 0.02 0.0
0.09 0.02 0.0
0.1 0.02 0.0
0.11 0.02 0.0
0.12 0.02 0.0
0.13 0.02 0.0
0.14 0.02 0.0
0.15 0.02 0.0
0.16 0.02 0.0
0.17 0.02 0.0
0.18 0.02 0.0
0.19 0.02 0.0
0.2 0.02 0.0
0.21 0.02 0.0
0.22 0.02 0.0
0.23 0.02 0.0
0.24 0.02 0.0
0.25 0.02 0.0
0.26 0.02 0.0
0.27 0.02 0.0
0.28 0.02 0.0
0.29 0.02 0.0
0.3 0.02 0.0
0.31 0.02 0.0
0.32 0.02 0.0
0.33 0.02 0.0
0.34 0.02 0.0
0.35000000000000003 0.02 0.0
0.36 0.02 0.0
0.37 0.02 0.0
0.38 0.02 0.0
0.39 0.02 0.0
0.4 0.02 0.0
0.41000000000000003 0.02 0.0
0.42 0.02 0.0
0.43 0.02 0.0
0.44 0.02 0.0
0.45 0.02 0.0
0.46 0.02 0.0
0.47000000000000003 0.02 0.0
0.48 0.02 0.0
0.49 0.02 0.0
0.5 0.02 0.0
0.51 0.02 0.0
0.52 0.02 0.0
0.53 0.02 0.0
0.54 0.02 0.0
0.55 0.02 0.0
0.56 0.02 0.0
0.5700000000000001 0.02 0.0
0.58 0.02 0.0
0.59 0.02 0.0
0.6 0.02 0.0
0.61 0.02 0.0
0.62 0.02 0.0
0.63 0.02 0.0
0.64 0.02 0.0
0.65 0.02 0.0
0.66 0.02 0.0
0.67 0.02 0.0
0.68 0.02 0.0
0.6900000000000001 0.02 0.0
0.7000000000000001 0.02 0.0
0.71 0.02 0.0
0.72 0.02 0.0
0.73 0.02 0.0
0.74 0.02 0.0
0.75 0.02 0.0
0.76 0.02 0.0
0.77 0.02 0.0
0.78 0.02 0.0
0.79 0.02 0.0
0.8 0.02 0.0
0.81 0.02 0.0
0.8200000000000001 0.02 0.0
0.8300000000000001 0.02 0.0
0.84 0.02 0.0
0.85 0.02 0.0
0.86 0.02 0.0
0.87 0.02 0.0
0.88 0.02 0.0
0.89 0.02 0.0
0.9 0.02 0.0
0.91 0.02 0.0
0.92 0.02 0.0
0.93 0.02 0.0
0.9400000000000001 0.02 0.0
0.9500000000000001 0.02 0.0
0.96 0.02 0.0
0.97 0.02 0.0
0.98 0.02 0.0
0.99 0.02 0.0
1.0 0.02 0.0
0.0 0.03 0.0
0.01 0.03 0.0
0.02 0.03 0.0
0.03 0.03 0.0
0.04 0.03 0.0
0.05 0.03 0.0
0.06 0.03 0.0
0.07 0.03 0.0
0.08 0.03 0.0
0.09 0.03 0.0
0.1 0.03 0.0
0.11 0.03 0.0
0.12 0.03 0.0
0.13 0.03 0.0
0.14 0.03 0.0
0.15 0.03 0.0
0.16 0.03 0.0
0.17 0.03 0.0
0.18 0.03 0.0
0.19 0.03 0.0
0.2 0.03 0.0
0.21 0.03 0.0
0.22 0.03 0.0
0.23 0.03 0.0
0.24 0.03 0.0
0.25 0.03 0.0
0.26 0.03 0.0
0.27 0.03 0.0
0.28 0.03 0.0
0.29 0.03 0.0
0.3 0.03 0.0
0.31 0.03 0.0
0.32 0.03 0.0
0.33 0.03 0.0
0.34 0.03 0.0
0.35000000000000003 0.03 0.0
0.36 0.03 0.0
0.37 0.03 0.0
0.38 0.03 0.0
0.39 0.03 0.0
0.4 0.03 0.0
0.41000000000000003 0.03 0.0
0.42 0.03 0.0
0.43 0.03 0.0
0.44 0.03 0.0
0.45 0.03 0.0
0.46 0.03 0.0
0.47000000000000003 0.03 0.0
0.48 0.03 0.0
0.49 0.03 0.0
0.5 0.03 0.0
0.51 0.03 0.0
0.52 0.03 0.0
0.53 0.03 0.0
0.54 0.03 0.0
0.55 0.03 0.0
0.56 0.03 0.0
0.5700000000000001 0.03 0.0
0.58 0.03 0.0
0.59 0.03 0.0
0.6 0.03 0.0
0.61 0.03 0.0
0.62 0.03 0.0
0.63 0.03 0.0
0.64 0.03 0.0
0.65 0.03 0.0
0.66 0.03 0.0
0.67 0.03 0.0
0.68 0.03 0.0
0.6900000000000001 0.03 0.0
0.7000000000000001 0.03 0.0
0.71 0.03 0.0
0.72 0.03 0.0
0.73 0.03 0.0
0.74 0.03 0.0
0.75 0.03 0.0
0.76 0.03 0.0
0.77 0.03 0.0
0.78 0.03 0.0
0.79 0.03 0.0
0.8 0.03 0.0
0.81 0.03 0.0
0.8200000000000001 0.03 0.0
0.8300000000000001 0.03 0.0
0.84 0.03 0.0
0.85 0.03 0.0
0.86 0.03 0.0
0.87 0.03 0.0
0.88 0.03 0.0
0.89 0.03 0.0
0.9 0.03 0.0
0.91 0.03 0.0
0.92 0.03 0.0
0.93 0.03 0.0
0.9400000000000001 0.03 0.0
0.9500000000000001 0.03 0.0
0.96 0.03 0.0
0.97 0.03 0.0
0.98 0.03 0.0
0.99 0.03 0.0
1.0 0.03 0.0
0.0 0.04 0.0
0.01 0.04 0.0
0.02 0.04 0.0
0.03 0.04 0.0
0.04 0.04 0.0
0.05 0.04 0.0
0.06 0.04 0.0
0.07 0.04 0.0
0.08 0.04 0.0
0.09 0.04 0.0
0.1 0.04 0.0
0.11 0.04 0.0
0.12 0.04 0.0
0.13 0.04 0.0
0.14 0.04 0.0
0.15 0.04 0.0
0.16 0.04 0.0
0.17 0.04 0.0
0.18 0.04 0.0
0.19 0.04 0.0
0.2 0.04 0.0
0.21 0.04 0.0
0.22 0.04 0.0
0.23 0.04 0.0
0.24 0.04 0.0
0.25 0.04 0.0
0.26 0.04 0.0
0.27 0.04 0.0
0.28 0.04 0.0
0.29 0.04 0.0
0.3 0.04 0.0
0.31 0.04 0.0
0.32 0.04 0.0
0.33 0.04 0.0
0.34 0.04 0.0
0.35000000000000003 0.04 0.0
0.36 0.04 0.0
0.37 0.04 0.0
0.38 0.04 0.0
0.39 0.04 0.0
0.4 0.04 0.0
0.41000000000000003 0.04 0.0
0.42 0.04 0.0
0.43 0.04 0.0
0.44 0.04 0.0
0.45 0.04 0.0
0.46 0.04 0.0
0.47000000000000003 0.04 0.0
0.48 0.04 0.0
0.49 0.04 0.0
0.5 0.04 0.0
0.51 0.04 0.0
0.52 0.04 0.0
0.53 0.04 0.0
0.54 0.04 0.0
0.55 0.04 0.0
0.56 0.04 0.0
0.5700000000000001 0.04 0.0
0.58 0.04 0.0
0.59 0.04 0.0
0.6 0.04 0.0
0.61 0.04 0.0
0.62 0.04 0.0
0.63 0.04 0.0
0.64 0.04 0.0
0.65 0.04 0.0
0.66 0.04 0.0
0.67 0.04 0.0
0.68 0.04 0.0
0.6900000000000001 0.04 0.0
0.7000000000000001 0.04 0.0
0.71 0.04 0.0
0.72 0.04 0.0
0.73 0.04 0.0
0.74 0.04 0.0
0.75 0.04 0.0
0.76 0.04 0.0
0.77 0.04 0.0
0.78 0.04 0.0
0.79 0.04 0.0
0.8 0.04 0.0
0.81 0.04 0.0
0.8200000000000001 0.04 0.0
0.8300000000000001 0.04 0.0
0.84 0.04 0.0
0.85 0.04 0.0
0.86 0.04 0.0
0.87 0.04 0.0
0.88 0.04 0.0
0.89 0.04 0.0
0.9 0.04 0.0
0.91 0.04 0.0
0.92 0.04 0.0
0.93 0.04 0.0
0.9400000000000001 0.04 0.0
0.9500000000000001 0.04 0.0
0.96 0.04 0.0
0.97 0.04 0.0
0.98 0.04 0.0
0.99 0.04 0.0
1.0 0.04 0.0
0.0 0.05 0.0
0.01 0.05 0.0
0.02 0.05 0.0
0.03 0.05 0.0
0.04 0.05 0.0
0.05 0.05 0.0
0.06 0.05 0.0
0.07 0.05 0.0
0.08 0.05 0.0
0.09 0.05 0.0
0.1 0.05 0.0
0.11 0.05 0.0
0.12 0.05 0.0
0.13 0.05 0.0
0.14 0.05 0.0
0.15 0.05 0.0
0.16 0.05 0.0
0.17 0.05 0.0
0.18 0.05 0.0
0.19 0.05 0.0
0.2 0.05 0.0
0.21 0.05 0.0
0.22 0.05 0.0
0.23 0.05 0.0
0.24 0.05 0.0
0.25 0.05 0.0
0.26 0.05 0.0
0.27 0.05 0.0
0.28 0.05 0.0
0.29 0.05 0.0
0.3 0.05 0.0
0.31 0.05 0.0
0.32 0.05 0.0
0.33 0.05 0.0
0.34 0.05 0.0
0.35000000000000003 0.05 0.0
0.36 0.05 0.0
0.37 0.05 0.0
0.38 0.05 0.0
0.39 0.05 0.0
0.4 0.05 0.0
0.41000000000000003 0.05 0.0
0.42 0.05 0.0
0.43 0.05 0.0
0.44 0.05 0.0
0.45 0.05 0.0
0.46 0.05 0.0
0.47000000000000003 0.05 0.0
0.48 0.05 0.0
0.49 0.05 0.0
0.5 0.05 0.0
0.51 0.05 0.0
0.52 0.05 0.0
0.53 0.05 0.0
0.54 0.05 0.0
0.55 0.05 0.0
0.56 0.05 0.0
0.5700000000000001 0.05 0.0
0.58 0.05 0.0
0.59 0.05 0.0
0.6 0.05 0.0
0.61 0.05 0.0
0.62 0.05 0.0
0.63 0.05 0.0
0.64 0.05 0.0
0.65 0.05 0.0
0.66 0.05 0.0
0.67 0.05 0.0
0.68 0.05 0.0
0.6900000000000001 0.05 0.0
0.7000000000000001 0.05 0.0
0.71 0.05 0.0
0.72 0.05 0.0
0.73 0.05 0.0
0.74 0.05 0.0
0.75 0.05 0.0
0.76 0.05 0.0
0.77 0.05 0.0
0.78 0.05 0.0
0.79 0.05 0.0
0.8 0.05 0.0
0.81 0.05 0.0
0.8200000000000001 0.05 0.0
0.8300000000000001 0.05 0.0
0.84 0.05 0.0
0.85 0.05 0.0
0.86 0.05 0.0
0.87 0.05 0.0
0.88 0.05 0.0
0.89 0.05 0.0
0.9 0.05 0.0
0.91 0.05 0.0
0.92 0.05 0.0
0.93 0.05 0.0
0.9400000000000001 0.05 0.0
0.9500000000000001 0.05 0.0
0.96 0.05 0.0
0.97 0.05 0.0
0.98 0.05 0.0
0.99 0.05 0.0
1.0 0.05 0.0
0.0 0.06 0.0
0.01 0.06 0.0
0.02 0.06 0.0
0.03 0.06 0.0
0.04 0.06 0.0
0.05 0.06 0.0
0.06 0.06 0.0
0.07 0.06 0.0
0.08 0.06 0.0
0.09 0.06 0.0
0.1 0.06 0.0
0.11 0.06 0.0
0.12 0.06 0.0
0.13 0.06 0.0
0.14 0.06 0.0
0.15 0.06 0.0
0.16 0.06 0.0
0.17 0.06 0.0
0.18 0.06 0.0
0.19 0.06 0.0
0.2 0.06 0.0
0.21 0.06 0.0
0.22 0.06 0.0
0.23 0.06 0.0
0.24 0.06 0.0
0.25 0.06 0.0
0.26 0.06 0.0
0.27 0.06 0.0
0.28 0.06 0.0
0.29 0.06 0.0
0.3 0.06 0.0
0.31 0.06 0.0
0.32 0.06 0.0
0.33 0.06 0.0
0.34 0.06 0.0
0.35000000000000003 0.06 0.0
0.36 0.06 0.0
0.37 0.06 0.0
0.38 0.06 0.0
0.39 0.06 0.0
0.4 0.06 0.0
0.41000000000000003 0.06 0.0
0.42 0.06 0.0
0.43 0.06 0.0
0.44 0.06 0.0
0.45 0.06 0.0
0.46 0.06 0.0
[...]
POINT_DATA  10201
FIELD  FlowField  5
Density    1 10201  double
8.507263137780729
8.41695731536
8.2128897489522
7.978135991309424
7.734373868655155
7.493596838235365
7.272037880079363
7.090065889453592
6.9660341453100605
6.908448550816662
6.910543334691289
6.949900616547508
6.992162017489268
6.996098922148908
6.91988637038245
6.731996349943644
6.427145640171696
6.036640663583331
5.618479281828865
5.230428064107388
4.907863855960969
4.6602151924691775
4.481549280919131
4.36202714684755
4.292586800079903
4.264536440536109
4.265865174567779
4.273475431827416
4.239193890273858
4.072745199059664
3.6586904034698855
3.0047523138432393
2.406307354672647
2.1279441598325493
2.0774112615137907
2.0843053088781947
2.0996210152829544
2.1173096618571576
2.136797908138547
2.158040531438935
2.1810263302376844
2.205735037564432
2.2321410395944246
2.260221665846661
2.2899641879414574
2.3213704034701284
2.354459000392941
2.3892662749957694
2.425845784808234
2.464267363181478
2.5046159083294057
2.546990394118944
2.5915034293113486
2.6382816110586678
2.6874668933138857
2.7392191373606383
2.7937198926943694
2.8511772563164683
2.911831393915068
2.9759601072452404
3.0438842578123215
3.1159764953364952
3.1926969355406207
3.2746125370523806
3.362130714012295
3.455353789943367
3.554204294593917
3.658370777445668
3.7671934189743483
3.879670315276198
3.9945202663098853
4.110238070403077
4.225219274317606
4.337944062505825
4.447295703033328
4.553203955167188
4.6576256838589085
4.765303177078033
4.883193975094677
5.017949452095081
5.172295641404935
5.342343077826115
5.518040191693855
5.686902191624638
5.838488702737223
5.967024381569171
6.071441710288642
6.153893772243553
6.218063311755543
6.267935175231968
6.3071221516322495
6.338603443362724
6.364694718109686
6.387113678009422
6.4070671023472725
6.425285193474207
6.441909685401274
6.456508354514293
6.468191209169001
6.4756756865234575
6.478187631961042
8.126290183029342
8.039048654322407
7.842383732685677
7.615250826008358
7.376438805973727
7.138251828170373
6.919496609643787
6.74422100559638
6.634115505777732
6.5988327937369355
6.629222459578726
6.6971337401143956
6.760807058576518
6.772236735190315
6.686298124737646
6.4745964827480975
6.1411041189146065
5.726736607455426
5.293043765048894
4.894717463742115
4.562105122017948
4.3018483093908735
4.107675677819019
3.970142934072125
3.880463248067078
3.830261829643073
3.808799102606265
3.797085626348765
3.7572679044249284
3.619137593318759
3.288176451204504
2.7491381088618603
2.2166782709786492
1.9373560582051104
1.8749661406330929
1.878614303785529
1.8927736080931075
1.90960935112249
1.9283547939554457
1.948951592190256
1.9713959968381611
1.9956797512960986
2.021791400160236
2.049723396881409
2.079478142421355
2.111071786982318
2.144535976170204
2.1799180815095873
2.2172804833870505
2.256699335034096
2.2982632336176287
2.342072334488883
2.388238402443421
2.4368862601644943
2.4881571011261805
2.5422140691795265
2.5992502875137875
2.659499084709427
2.7232454875342347
2.790837213542683
2.8626928038869397
2.9393057406994245
3.0212533462851225
3.1091845758111774
3.2036432356729394
3.304936950329091
3.4131380810553478
3.5279283583472396
3.648458415340051
3.773422318788524
3.9011586751010565
4.029749624629833
4.157233957632834
4.28189628925265
4.402667710153444
4.51974428283311
4.63538156188761
4.754295213144307
4.88277670563698
5.026225526561936
5.186018907282707
5.357561926441203
5.531171231500516
5.695556967045332
5.841675229368785
5.964832140461482
6.064564308446277
6.143246209492965
6.204559364116584
6.252390285716177
6.290228851789312
6.320937612346784
6.346730033042445
6.369236213267547
6.3895884041860675
6.40845843648467
6.425931761348563
6.44147830134716
6.454064104186477
6.462224587315159
6.464991853487188
7.280528124138542
7.193719086189883
7.00090072933755
6.780534566618109
6.547124282291084
6.313438964445237
6.103724124045705
5.950040743513804
5.880714119114984
5.905532011748182
6.0054201481322345
6.134173183205461
6.231615349253732
6.239643719054779
6.116436489541699
5.8498258052638565
5.465279910581
5.018254818076077
4.570961318117094
4.169242619673706
3.834045596943465
3.5674406700095895
3.3629582447093527
3.2120503629519694
3.106324510123269
3.037616262799929
2.996548770840562
2.96933798276104
2.9323077461462863
2.8446717174535556
2.646361006827548
2.2957850910942126
1.8820252579008674
1.6071780677522085
1.5241869479446462
1.5238058972035649
1.538774365970256
1.5570152377443645
1.5772930188138825
1.5995221230940853
1.6237187442392327
1.6499034420960446
1.6780969613189556
1.708324788274212
1.7406210689067882
1.7750305146040428
1.8116083983414124
1.8504190519038206
1.8915333812828248
1.9350258045514799
1.9809710981536819
2.029441893015083
2.080507659864235
2.134236225829411
2.190699059203669
2.249981622007496
2.3121998640603563
2.3775232305727236
2.446203204089063
2.51860432447302
2.595231976970715
2.676748511330618
2.7639672587674693
2.8578118069572227
2.959223824764665
3.0690222214201786
3.1877288159647907
3.315316242436709
3.451020759046075
3.5933684944277227
3.740284099377241
3.8892958130014206
4.037912649474523
4.184107999879128
4.326852470639494
4.466626525815524
4.605745941302431
4.748076229754852
4.897759766474868
5.057162511953919
5.2249554945486185
5.395573461040772
5.56066641295552
5.711849293164237
5.843201931915622
5.952351945323974
6.040079117414513
6.109160526194956
6.1632004653130315
6.205806095520831
6.2401438917133785
6.268775724890345
6.293654899917807
6.316191892417233
6.337335909950364
6.357618740937253
6.377003358202587
6.394742077035303
6.409456766314733
6.419234367935002
6.422618120449987
6.401269664761394
6.30231547679783
6.087924961630861
5.853304108197764
5.614111466338612
5.384050655335718
5.192754733843642
5.079715112393943
5.076263483490788
5.182907603071788
5.358082362308324
5.5302695102596555
5.625461456403107
5.5907194887165526
5.405522880076653
5.084524267666779
4.672344861548707
4.227975803902038
3.804428116581942
3.4354526773780565
3.134254459826886
2.9001352309108546
2.7263215876104896
2.6042446224799574
2.524974421855958
2.479526523583902
2.458015433521546
2.447756349691878
2.4306534128448467
2.3799387880646528
2.2554543030375127
2.012392128253716
1.6774247007060903
1.4112557406917914
1.3142237649700372
1.3127959470348973
1.3315828835245365
1.3541025795088073
1.3786464925506943
1.4051220240363733
1.4335828938673676
1.4640948960111697
1.4967272037980417
1.5315550198353056
1.5686617097402906
1.6081388953003404
1.650084537941361
1.694599039581147
1.741779813326217
1.791714307565963
1.8444721730924953
1.9000980296673526
1.9586053996798825
2.019973092548398
2.0841463264877262
2.1510450834055708
2.2205822730334552
2.2926937797231615
2.3673810488045044
2.4447642695879215
2.5251403764401594
2.6090353882621775
2.6972360275905833
2.7907825999471227
2.890904757754169
2.998878495376044
3.11579143402952
3.242273732821926
3.37826034165127
3.5228498212546073
3.6743423457101283
3.8304823013493903
3.9888842674865863
4.147564814247696
4.305448336929983
4.462675682742413
4.620518778633908
4.78074867214443
4.94450658229804
5.111072203336952
5.277180345984265
5.437410790075491
5.585608445504269
5.716651949691245
5.827709582281387
5.9185316693844765
5.99092654892985
6.047888585710963
6.092791542463637
6.128835925595956
6.158758132990822
6.184731857317023
6.208382494407923
6.230852606250313
6.252877678999922
6.274833193928448
6.296563091729767
6.317090710987404
6.334599142499576
6.346543340847429
6.350762286671513
5.642291690861584
5.519778476022868
5.259548478401219
4.9903236966620925
4.737397181841615
4.516882163047059
4.36203757245166
4.313482734981032
4.392997664325223
4.577159202210877
4.795306732594078
4.959787736082059
5.003511500998151
4.8979111341775
4.651361655042136
4.3001595004639706
3.8961941444349835
3.491789811974914
3.126659304829008
2.822651437088273
2.5862859450799727
2.4141946278679343
2.298040862103809
2.2278084639646165
2.1933534604171108
2.1847605389785523
2.191747317116539
2.202602009104725
2.2031562346785662
2.1745599754935325
2.085861173403939
1.892009569783097
1.594451735585575
1.332011098707212
1.2261702150450458
1.2237934206616528
1.2448681591184403
1.2698949936040407
1.2969022112295954
1.3258261157931195
1.3567721381971567
1.3898637719561446
1.4252330934846345
1.4630236927281508
1.5033914854007073
1.546503254503548
1.5925344910917691
1.6416643252183343
1.6940674314612647
1.749903527664534
1.8093047889731695
1.8723617138323023
1.9391085116112898
2.0095097563448507
2.083450845940356
2.160735636356454
2.241095218754033
2.3242118221773094
2.4097608168342077
2.49747133732915
2.587201902388074
2.6790217739996303
2.773282572939493
2.870659556186436
2.9721405587019625
3.078945020783638
3.1923627934897443
3.3135232243662056
3.4431216069897577
3.581166540840393
3.726904267394581
3.8789643588644824
4.035663874423422
4.195396548204673
4.356961222376409
4.519683188835536
4.683222374946115
4.847075763727587
5.009948056241508
5.169306070961724
5.321427637364341
5.462042381946346
5.587334849801415
5.694865633266383
5.784029186997004
5.8559462126961535
5.912961879686336
5.958023847709406
5.99415119813486
6.024083029319868
6.050102051857189
6.073987023126939
6.097041782226745
6.1201574960693375
6.143877379407325
6.1684374363859105
6.193571589644606
6.218058565021019
6.239513792961527
6.2544941254127835
6.259873097311804
5.009411239669092
4.856237618293301
4.536530929323068
4.2259714599317775
3.966375903347463
3.775612793765425
3.6834172212404614
3.71770648632619
3.874978241532095
4.1009390842348665
4.3064350268240545
4.410968450195079
4.374527821489932
4.199228554416065
3.9156873038950546
3.5692545295364555
3.207979113417175
2.8721054628955702
2.587736285156641
2.3662211701590388
2.207612548545704
2.1050070648989996
2.0480571969722594
2.0256983934438155
2.0276928698222925
2.044761010858874
2.068034047543544
2.0884674951802413
2.0962440648504437
2.077742815917535
2.005840740221117
1.8344707612699687
1.553599487820357
1.2917410444104118
1.1804873141443037
1.176674166507877
1.1977307438377789
1.2227446911913724
1.2497094049792277
1.278604721774784
1.3095811738451384
1.34281136362908
1.3784820056134297
1.4167991055725984
1.4579909272293334
1.5023081643404714
1.5500211362188656
1.6014138960097923
1.656774875001394
1.7163843295824908
1.7804983339449916
1.849328656057988
1.9230196873412413
2.001624232187492
2.0850804980790456
2.173194063990712
2.2656298031736295
2.3619194532115833
2.461490227490461
2.5637179612463283
2.6680043371656206
2.773871720789097
2.881061774141487
2.9896169318781434
3.0999206096962153
3.2126841036965335
3.32887856549637
3.449585263112092
3.5757837532882313
3.708136985880373
3.8468160828088687
3.9914124029603513
4.141019401231018
4.2944321101832745
4.450312118289721
4.607242704578985
4.763637119881021
4.917549296178163
5.066516510761931
5.207589937549141
5.337641140806628
5.453889788541359
5.554463409525184
5.63876724221957
5.707535085695933
5.762582058405702
5.80638965901659
5.841674716300055
5.871046884569929
5.896793440965858
5.92078112191756
5.944442247476188
5.968808654073351
5.994560465758237
6.022068558810115
6.051419537143558
6.082184394451769
6.112788844715068
6.140066572775433
6.159353283933106
6.166331552326032
4.476065717212394
4.289227604534496
3.909796415611429
3.570579147518192
3.3284736489162663
3.1948388096252844
3.183057731392057
3.295077423059757
3.495939517801415
3.7094815285041216
3.8511055270477694
3.868762038707265
3.755587385016354
3.5366431643460627
3.251797142907757
2.943925122572276
2.650610032192332
2.3985216199249066
2.2014812317210932
2.0619899587715715
1.9746585720990009
1.9298539975441564
1.9166351167849682
1.9248703352623335
1.9461308162304876
1.9733734885284062
2.000335730071582
2.0211318223085564
2.029448583964322
2.0144531030943473
1.9501965990011165
1.7895894587449779
1.5169987903985196
1.2559738242962826
1.1424804542069145
1.1374515288989735
1.157256547728428
1.1808312032579031
1.2062892218615668
1.233644532923357
1.2630668336661968
1.2947541899101584
1.3289295598091142
1.3658454333361252
1.4057888457508936
1.4490840502641027
1.4960904157073267
1.5471972911639393
1.6028155557732016
1.6633649768010326
1.7292567845363696
1.8008708265459625
1.8785272219418152
1.9624533025817203
2.0527477785414394
2.1493456056389055
2.251988779939336
2.360209857856292
2.4733358279491116
2.590519323946073
2.7108013692274318
2.8332044854056826
2.956847360592392
3.081063657147851
3.205500661191508
3.3301718952926325
3.455442294359642
3.5819396901091816
3.710422017308181
3.8416331587072476
3.9761161911327663
4.1140302408821485
4.255046848607313
4.398321594804998
4.5425436570796585
4.686008064621438
4.8266644169296935
4.962173801398358
5.0900260128138255
5.207757866915395
5.313263953240049
5.405128363472954
5.482871306245293
5.547024760616796
5.599016039235465
5.6409077966978725
5.675080836045181
5.703941929222322
5.7297073825406715
5.7542752363932514
5.779171822809531
5.805550006920088
5.834214559241414
5.8656417352416215
5.8999907515496774
5.937114759108551
5.976278786347237
6.015378198357586
6.050280949251232
6.074926945742106
6.083824029206153
4.026186694043919
3.8087229370832647
3.384045695972875
3.042579207747548
2.8448840280937326
2.7830883119591676
2.844610077768486
3.002041615143178
3.1964765913135995
3.3503781566370394
3.4047782882201236
3.342340073470992
3.1807424497773407
2.954452159274347
2.7012486478251128
2.454759939873119
2.23998649426498
2.071206359924943
1.9524504737951087
1.8798849795975985
1.8450373109731282
1.8378933575725551
1.8491314110797807
1.8712353116985516
1.8985045905392244
1.9264158523198338
1.9510916823672253
1.9690024331296638
1.9758213082855054
1.9616897872156296
1.9007051128187964
1.745154488223668
1.4770414454136407
1.2181763032192765
1.105390658232873
1.0998316764778242
1.1179408288152775
1.1394553114837895
1.1626993409783541
1.1877065762484584
1.2146473537789495
1.2437256885633858
1.275180235497422
1.3092893744146583
1.3463766845906333
1.3868147634066426
1.4310263592824242
1.4794823972475983
1.5326963956753175
1.5912145103824122
1.655600129938263
1.7264118147191894
1.804173666773222
1.8893378273795456
1.982239848445754
2.083049289304495
2.191719988782818
2.3079467942092937
2.431137586573076
2.560410465655351
2.6946250459488352
2.8324531531925397
2.9724874608732237
3.113377347485291
3.253971456179813
3.393439264150672
3.5313420809005214
3.667631375567396
3.8025688598620455
3.936580863340003
4.070084368139655
4.2033321174936376
4.336249788324187
4.468300095857022
4.598445311177154
4.725198202068656
4.846747950551555
4.9611344536192
5.0664606921851565
5.161132548365369
5.244090628292401
5.3149843146529125
5.374242427366422
5.423020746180406
5.4630428599538545
5.496378822562695
5.525214734949174
5.551657123191707
5.577596982979327
5.604626742625568
5.633994996832308
5.666595812258442
5.7029745167164565
5.743332590596422
5.787531154584736
5.835093491500868
5.884857156947225
5.934060086583729
5.977534748503341
6.00787892367184
6.018729168769995
3.6570575542686843
3.4176965160406674
2.9701173614441703
2.6505204497915233
2.509148142405542
2.511227750159563
2.6172864200411015
2.7767647659921426
2.9235437940963793
2.9983707716018966
2.974848412541546
2.861757270800258
2.6874240926913364
2.4847489397180578
2.2832368514185113
2.105287386706279
1.9644726564905615
1.8655578463707356
1.8061272285289427
1.7791924723520662
1.7760170150495806
1.788392839578875
1.8098285220831611
1.8356507642360453
1.8624725493019776
1.8875942669449755
1.9087066568239197
1.9236400140143612
1.928902828491669
1.9146832460237602
1.8547027610942517
1.700804717365669
1.4346934953259407
1.1792662729707668
1.0698338621378851
1.0645645329671494
1.0808976915650315
1.1001417375404818
1.120891932320177
1.143192874538061
1.1672039638184806
1.1931187613350032
1.221168182982756
1.251628588823454
1.284829298637096
1.3211585139506008
1.3610670656795762
1.4050696813551764
1.453743280942222
1.5077214006763113
1.5676833978584102
1.6343367977066843
1.708391113459845
1.7905217196013952
1.8813230673805015
1.9812518763698426
2.0905629974599176
2.2092433438826364
2.336952293521148
2.4729796195299905
2.616233343488701
2.7652688122542086
2.918365831433529
3.0736525377114066
3.229263741568748
3.3835100489069996
3.535025513219776
3.6828606906950663
3.826497038744405
3.9657753375062157
4.100753698163471
4.231528455507162
4.358063654610283
4.48006753938303
4.596919657128939
4.70767745508144
4.811183444416804
4.906239190538548
4.991809600178346
5.067219032473964
5.132300767758923
5.187472707550009
5.233728215735194
5.2725474755686195
5.305752547710751
5.335335037275758
5.36328693225864
5.391460943684933
5.421470575521955
5.454627301446167
5.4919059039135565
5.533924279005833
5.580927019914986
5.632780123374529
5.688973872037321
5.748625789249993
5.8100580600277425
5.869789131941672
5.921675292001283
5.957247594913318
5.969789600907935
3.3663023321767067
3.114646461907406
2.6632325397970056
2.3767357757824685
2.2860626264655854
2.3294766656590586
2.445679393057132
2.5733139562696747
2.655952502641136
2.660811176757674
2.587348345921579
2.4569914213547186
2.2979681696530907
2.13609786993566
1.9911105664409567
1.8753945302193247
1.7939632923798507
1.7455697652417392
1.724735641351371
1.7241464157688497
1.7367468850774939
1.7569705560653819
1.7809541886701312
1.8060812194226523
1.830399983452267
1.8522794322216436
1.8703180245391424
1.8830348148876985
1.8871517061806968
1.872518529653815
1.812221978872961
1.6574953011194722
1.3913405337551743
1.1405736529860298
1.0369435632016635
1.0327601537713993
1.047433734417718
1.064472188595774
1.0827719673428278
1.1023780382759127
1.1234232324543396
1.1460736884243579
1.1705342031437045
1.1970571371618965
1.2259511581085951
1.2575887632922356
1.2924121603127985
1.3309374100982903
1.373756502545804
1.4215365459074059
1.4750147280980668
1.5349872707730476
1.602290284238756
1.6777703013613767
1.7622425017496943
1.8564354480655112
1.9609227472911404
2.0760445395779565
2.201825024120793
2.3378959501540124
2.483439325444341
2.6371643513600382
2.7973324456173025
2.9618390572555713
3.128351507154494
3.2944893444288885
3.4580204249581827
3.617036804300203
3.7700739697431533
3.9161470699626637
4.054698409360025
4.185473947237112
4.3083668500092385
4.4232729681950325
4.529997936576622
4.628233248866507
4.717600808711206
4.797760901743234
4.868552472379519
4.930122503707539
4.983013822415991
5.028193145947886
5.067016202245379
5.101140276262722
5.132403413454386
5.162692532013921
5.193819642470994
5.227417303127722
5.264854826681217
5.307181385884098
5.355093542707719
5.408906941973693
5.468529385181208
5.5334425964251235
5.602705604524296
5.674964267530175
5.74795315935814
5.81748377489269
5.876644755570708
5.916356309423006
5.9301317106326366
3.1442625624997484
2.8875194701236007
2.442898143647678
2.1885083546143824
2.133653044721986
2.1937434369311357
2.293985096122318
2.375409894181337
2.4001739069717654
2.3586106134019857
2.264535947431519
2.141642519172061
2.0127311377445887
1.8953196736211355
1.8006112618189412
1.7336187563072694
1.694012312902021
1.6776693096587616
1.678631545522638
1.6909369250615316
1.709804999984694
1.7319575568724233
1.755294530352609
1.7783624388711443
1.799976415800517
1.8191106319388406
1.834886443239731
1.846140117787405
1.8495221780230664
1.834373640033904
1.7728551147221419
1.6152234119057975
1.347360270137983
1.1027152929267916
1.0072000170352768
1.0047686181492486
1.0180224834782332
1.0331157780408766
1.0492342720063987
1.066413031935658
1.0847516677297597
1.1043805226311438
1.1254669711401308
1.1482244873613432
1.1729220031821432
1.19989228672458
1.2295390351272657
1.262342855924831
1.2988660730984822
1.3397557802079754
1.3857440284904847
1.437643541164071
1.4963368747974246
1.562756542697469
1.6378534082166658
1.722550848428989
1.817683032731219
1.9239174123579055
2.041664338374019
2.1709805484782025
2.3114776374591117
2.4622506267663464
2.6218440113031507
2.7882716242684387
2.9591010354744256
3.1316026147005283
3.3029491120516243
3.4704371114620236
3.6316918519269676
3.7848165304472126
3.928459108737052
4.0617909317202034
4.184415911105935