# vtk DataFile Version 3.0 
shock_diffraction_time_series_287_.vtk
ASCII
DATASET UNSTRUCTURED_GRID
POINTS         10201 double
0.0 0.0 0.0
0.01 0.0 0.0
0.02 0.0 0.0
0.03 0.0 0.0
0.04 0.0 0.0
0.05 0.0 0.0
0.06 0.0 0.0
0.07 0.0 0.0
0.08 0.0 0.0
0.09 0.0 0.0
0.1 0.0 0.0
0.11 0.0 0.0
0.12 0.0 0.0
0.13 0.0 0.0
0.14 0.0 0.0
0.15 0.0 0.0
0.16 0.0 0.0
0.17 0.0 0.0
0.18 0.0 0.0
0.19 0.0 0.0
0.2 0.0 0.0
0.21 0.0 0.0
0.22 0.0 0.0
0.23 0.0 0.0
0.24 0.0 0.0
0.25 0.0 0.0
0.26 0.0 0.0
0.27 0.0 0.0
0.28 0.0 0.0
0.29 0.0 0.0
0.3 0.0 0.0
0.31 0.0 0.0
0.32 0.0 0.0
0.33 0.0 0.0
0.34 0.0 0.0
0.35000000000000003 0.0 0.0
0.36 0.0 0.0
0.37 0.0 0.0
0.38 0.0 0.0
0.39 0.0 0.0
0.4 0.0 0.0
0.41000000000000003 0.0 0.0
0.42 0.0 0.0
0.43 0.0 0.0
0.44 0.0 0.0
0.45 0.0 0.0
0.46 0.0 0.0
0.47000000000000003 0.0 0.0
0.48 0.0 0.0
0.49 0.0 0.0
0.5 0.0 0.0
0.51 0.0 0.0
0.52 0.0 0.0
0.53 0.0 0.0
0.54 0.0 0.0
0.55 0.0 0.0
0.56 0.0 0.0
0.5700000000000001 0.0 0.0
0.58 0.0 0.0
0.59 0.0 0.0
0.6 0.0 0.0
0.61 0.0 0.0
0.62 0.0 0.0
0.63 0.0 0.0
0.64 0.0 0.0
0.65 0.0 0.0
0.66 0.0 0.0
0.67 0.0 0.0
0.68 0.0 0.0
0.6900000000000001 0.0 0.0
0.7000000000000001 0.0 0.0
0.71 0.0 0.0
0.72 0.0 0.0
0.73 0.0 0.0
0.74 0.0 0.0
0.75 0.0 0.0
0.76 0.0 0.0
0.77 0.0 0.0
0.78 0.0 0.0
0.79 0.0 0.0
0.8 0.0 0.0
0.81 0.0 0.0
0.8200000000000001 0.0 0.0
0.8300000000000001 0.0 0.0
0.84 0.0 0.0
0.85 0.0 0.0
0.86 0.0 0.0
0.87 0.0 0.0
0.88 0.0 0.0
0.89 0.0 0.0
0.9 0.0 0.0
0.91 0.0 0.0
0.92 0.0 0.0
0.93 0.0 0.0
0.9400000000000001 0.0 0.0
0.9500000000000001 0.0 0.0
0.96 0.0 0.0
0.97 0.0 0.0
0.98 0.0 0.0
0.99 0.0 0.0
1.0 0.0 0.0
0.0 0.01 0.0
0.01 0.01 0.0
0.02 0.01 0.0
0.03 0.01 0.0
0.04 0.01 0.0
0.05 0.01 0.0
0.06 0.01 0.0
0.07 0.01 0.0
0.08 0.01 0.0
0.09 0.01 0.0
0.1 0.01 0.0
0.11 0.01 0.0
0.12 0.01 0.0
0.13 0.01 0.0
0.14 0.01 0.0
0.15 0.01 0.0
0.16 0.01 0.0
0.17 0.01 0.0
0.18 0.01 0.0
0.19 0.01 0.0
0.2 0.01 0.0
0.21 0.01 0.0
0.22 0.01 0.0
0.23 0.01 0.0
0.24 0.01 0.0
0.25 0.01 0.0
0.26 0.01 0.0
0.27 0.01 0.0
0.28 0.01 0.0
0.29 0.01 0.0
0.3 0.01 0.0
0.31 0.01 0.0
0.32 0.01 0.0
0.33 0.01 0.0
0.34 0.01 0.0
0.35000000000000003 0.01 0.0
0.36 0.01 0.0
0.37 0.01 0.0
0.38 0.01 0.0
0.39 0.01 0.0
0.4 0.01 0.0
0.41000000000000003 0.01 0.0
0.42 0.01 0.0
0.43 0.01 0.0
0.44 0.01 0.0
0.45 0.01 0.0
0.46 0.01 0.0
0.47000000000000003 0.01 0.0
0.48 0.01 0.0
0.49 0.01 0.0
0.5 0.01 0.0
0.51 0.01 0.0
0.52 0.01 0.0
0.53 0.01 0.0
0.54 0.01 0.0
0.55 0.01 0.0
0.56 0.01 0.0
0.5700000000000001 0.01 0.0
0.58 0.01 0.0
0.59 0.01 0.0
0.6 0.01 0.0
0.61 0.01 0.0
0.62 0.01 0.0
0.63 0.01 0.0
0.64 0.01 0.0
0.65 0.01 0.0
0.66 0.01 0.0
0.67 0.01 0.0
0.68 0.01 0.0
0.6900000000000001 0.01 0.0
0.7000000000000001 0.01 0.0
0.71 0.01 0.0
0.72 0.01 0.0
0.73 0.01 0.0
0.74 0.01 0.0
0.75 0.01 0.0
0.76 0.01 0.0
0.77 0.01 0.0
0.78 0.01 0.0
0.79 0.01 0.0
0.8 0.01 0.0
0.81 0.01 0.0
0.8200000000000001 0.01 0.0
0.8300000000000001 0.01 0.0
0.84 0.01 0.0
0.85 0.01 0.0
0.86 0.01 0.0
0.87 0.01 0.0
0.88 0.01 0.0
0.89 0.01 0.0
0.9 0.01 0.0
0.91 0.01 0.0
0.92 0.01 0.0
0.93 0.01 0.0
0.9400000000000001 0.01 0.0
0.9500000000000001 0.01 0.0
0.96 0.01 0.0
0.97 0.01 0.0
0.98 0.01 0.0
0.99 0.01 0.0
1.0 0.01 0.0
0.0 0.02 0.0
0.01 0.02 0.0
0.02 0.02 0.0
0.03 0.02 0.0
0.04 0.02 0.0
0.05 0.02 0.0
0.06 0.02 0.0
0.07 0.02 0.0
0.08 0.02 0.0
0.09 0.02 0.0
0.1 0.02 0.0
0.11 0.02 0.0
0.12 0.02 0.0
0.13 0.02 0.0
0.14 0.02 0.0
0.15 0.02 0.0
0.16 0.02 0.0
0.17 0.02 0.0
0.18 0.02 0.0
0.19 0.02 0.0
0.2 0.02 0.0
0.21 0.02 0.0
0.22 0.02 0.0
0.23 0.02 0.0
0.24 0.02 0.0
0.25 0.02 0.0
0.26 0.02 0.0
0.27 0.02 0.0
0.28 0.02 0.0
0.29 0.02 0.0
0.3 0.02 0.0
0.31 0.02 0.0
0.32 0.02 0.0
0.33 0.02 0.0
0.34 0.02 0.0
0.35000000000000003 0.02 0.0
0.36 0.02 0.0
0.37 0.02 0.0
0.38 0.02 0.0
0.39 0.02 0.0
0.4 0.02 0.0
0.41000000000000003 0.02 0.0
0.42 0.02 0.0
0.43 0.02 0.0
0.44 0.02 0.0
0.45 0.02 0.0
0.46 0.02 0.0
0.47000000000000003 0.02 0.0
0.48 0.02 0.0
0.49 0.02 0.0
0.5 0.02 0.0
0.51 0.02 0.0
0.52 0.02 0.0
0.53 0.02 0.0
0.54 0.02 0.0
0.55 0.02 0.0
0.56 0.02 0.0
0.5700000000000001 0.02 0.0
0.58 0.02 0.0
0.59 0.02 0.0
0.6 0.02 0.0
0.61 0.02 0.0
0.62 0.02 0.0
0.63 0.02 0.0
0.64 0.02 0.0
0.65 0.02 0.0
0.66 0.02 0.0
0.67 0.02 0.0
0.68 0.02 0.0
0.6900000000000001 0.02 0.0
0.7000000000000001 0.02 0.0
0.71 0.02 0.0
0.72 0.02 0.0
0.73 0.02 0.0
0.74 0.02 0.0
0.75 0.02 0.0
0.76 0.02 0.0
0.77 0.02 0.0
0.78 0.02 0.0
0.79 0.02 0.0
0.8 0.02 0.0
0.81 0.02 0.0
0.8200000000000001 0.02 0.0
0.8300000000000001 0.02 0.0
0.84 0.02 0.0
0.85 0.02 0.0
0.86 0.02 0.0
0.87 0.02 0.0
0.88 0.02 0.0
0.89 0.02 0.0
0.9 0.02 0.0
0.91 0.02 0.0
0.92 0.02 0.0
0.93 0.02 0.0
0.9400000000000001 0.02 0.0
0.9500000000000001 0.02 0.0
0.96 0.02 0.0
0.97 0.02 0.0
0.98 0.02 0.0
0.99 0.02 0.0
1.0 0.02 0.0
0.0 0.03 0.0
0.01 0.03 0.0
0.02 0.03 0.0
0.03 0.03 0.0
0.04 0.03 0.0
0.05 0.03 0.0
0.06 0.03 0.0
0.07 0.03 0.0
0.08 0.03 0.0
0.09 0.03 0.0
0.1 0.03 0.0
0.11 0.03 0.0
0.12 0.03 0.0
0.13 0.03 0.0
0.14 0.03 0.0
0.15 0.03 0.0
0.16 0.03 0.0
0.17 0.03 0.0
0.18 0.03 0.0
0.19 0.03 0.0
0.2 0.03 0.0
0.21 0.03 0.0
0.22 0.03 0.0
0.23 0.03 0.0
0.24 0.03 0.0
0.25 0.03 0.0
0.26 0.03 0.0
0.27 0.03 0.0
0.28 0.03 0.0
0.29 0.03 0.0
0.3 0.03 0.0
0.31 0.03 0.0
0.32 0.03 0.0
0.33 0.03 0.0
0.34 0.03 0.0
0.35000000000000003 0.03 0.0
0.36 0.03 0.0
0.37 0.03 0.0
0.38 0.03 0.0
0.39 0.03 0.0
0.4 0.03 0.0
0.41000000000000003 0.03 0.0
0.42 0.03 0.0
0.43 0.03 0.0
0.44 0.03 0.0
0.45 0.03 0.0
0.46 0.03 0.0
0.47000000000000003 0.03 0.0
0.48 0.03 0.0
0.49 0.03 0.0
0.5 0.03 0.0
0.51 0.03 0.0
0.52 0.03 0.0
0.53 0.03 0.0
0.54 0.03 0.0
0.55 0.03 0.0
0.56 0.03 0.0
0.5700000000000001 0.03 0.0
0.58 0.03 0.0
0.59 0.03 0.0
0.6 0.03 0.0
0.61 0.03 0.0
0.62 0.03 0.0
0.63 0.03 0.0
0.64 0.03 0.0
0.65 0.03 0.0
0.66 0.03 0.0
0.67 0.03 0.0
0.68 0.03 0.0
0.6900000000000001 0.03 0.0
0.7000000000000001 0.03 0.0
0.71 0.03 0.0
0.72 0.03 0.0
0.73 0.03 0.0
0.74 0.03 0.0
0.75 0.03 0.0
0.76 0.03 0.0
0.77 0.03 0.0
0.78 0.03 0.0
0.79 0.03 0.0
0.8 0.03 0.0
0.81 0.03 0.0
0.8200000000000001 0.03 0.0
0.8300000000000001 0.03 0.0
0.84 0.03 0.0
0.85 0.03 0.0
0.86 0.03 0.0
0.87 0.03 0.0
0.88 0.03 0.0
0.89 0.03 0.0
0.9 0.03 0.0
0.91 0.03 0.0
0.92 0.03 0.0
0.93 0.03 0.0
0.9400000000000001 0.03 0.0
0.9500000000000001 0.03 0.0
0.96 0.03 0.0
0.97 0.03 0.0
0.98 0.03 0.0
0.99 0.03 0.0
1.0 0.03 0.0
0.0 0.04 0.0
0.01 0.04 0.0
0.02 0.04 0.0
0.03 0.04 0.0
0.04 0.04 0.0
0.05 0.04 0.0
0.06 0.04 0.0
0.07 0.04 0.0
0.08 0.04 0.0
0.09 0.04 0.0
0.1 0.04 0.0
0.11 0.04 0.0
0.12 0.04 0.0
0.13 0.04 0.0
0.14 0.04 0.0
0.15 0.04 0.0
0.16 0.04 0.0
0.17 0.04 0.0
0.18 0.04 0.0
0.19 0.04 0.0
0.2 0.04 0.0
0.21 0.04 0.0
0.22 0.04 0.0
0.23 0.04 0.0
0.24 0.04 0.0
0.25 0.04 0.0
0.26 0.04 0.0
0.27 0.04 0.0
0.28 0.04 0.0
0.29 0.04 0.0
0.3 0.04 0.0
0.31 0.04 0.0
0.32 0.04 0.0
0.33 0.04 0.0
0.34 0.04 0.0
0.35000000000000003 0.04 0.0
0.36 0.04 0.0
0.37 0.04 0.0
0.38 0.04 0.0
0.39 0.04 0.0
0.4 0.04 0.0
0.41000000000000003 0.04 0.0
0.42 0.04 0.0
0.43 0.04 0.0
0.44 0.04 0.0
0.45 0.04 0.0
0.46 0.04 0.0
0.47000000000000003 0.04 0.0
0.48 0.04 0.0
0.49 0.04 0.0
0.5 0.04 0.0
0.51 0.04 0.0
0.52 0.04 0.0
0.53 0.04 0.0
0.54 0.04 0.0
0.55 0.04 0.0
0.56 0.04 0.0
0.5700000000000001 0.04 0.0
0.58 0.04 0.0
0.59 0.04 0.0
0.6 0.04 0.0
0.61 0.04 0.0
0.62 0.04 0.0
0.63 0.04 0.0
0.64 0.04 0.0
0.65 0.04 0.0
0.66 0.04 0.0
0.67 0.04 0.0
0.68 0.04 0.0
0.6900000000000001 0.04 0.0
0.7000000000000001 0.04 0.0
0.71 0.04 0.0
0.72 0.04 0.0
0.73 0.04 0.0
0.74 0.04 0.0
0.75 0.04 0.0
0.76 0.04 0.0
0.77 0.04 0.0
0.78 0.04 0.0
0.79 0.04 0.0
0.8 0.04 0.0
0.81 0.04 0.0
0.8200000000000001 0.04 0.0
0.8300000000000001 0.04 0.0
0.84 0.04 0.0
0.85 0.04 0.0
0.86 0.04 0.0
0.87 0.04 0.0
0.88 0.04 0.0
0.89 0.04 0.0
0.9 0.04 0.0
0.91 0.04 0.0
0.92 0.04 0.0
0.93 0.04 0.0
0.9400000000000001 0.04 0.0
0.9500000000000001 0.04 0.0
0.96 0.04 0.0
0.97 0.04 0.0
0.98 0.04 0.0
0.99 0.04 0.0
1.0 0.04 0.0
0.0 0.05 0.0
0.01 0.05 0.0
0.02 0.05 0.0
0.03 0.05 0.0
0.04 0.05 0.0
0.05 0.05 0.0
0.06 0.05 0.0
0.07 0.05 0.0
0.08 0.05 0.0
0.09 0.05 0.0
0.1 0.05 0.0
0.11 0.05 0.0
0.12 0.05 0.0
0.13 0.05 0.0
0.14 0.05 0.0
0.15 0.05 0.0
0.16 0.05 0.0
0.17 0.05 0.0
0.18 0.05 0.0
0.19 0.05 0.0
0.2 0.05 0.0
0.21 0.05 0.0
0.22 0.05 0.0
0.23 0.05 0.0
0.24 0.05 0.0
0.25 0.05 0.0
0.26 0.05 0.0
0.27 0.05 0.0
0.28 0.05 0.0
0.29 0.05 0.0
0.3 0.05 0.0
0.31 0.05 0.0
0.32 0.05 0.0
0.33 0.05 0.0
0.34 0.05 0.0
0.35000000000000003 0.05 0.0
0.36 0.05 0.0
0.37 0.05 0.0
0.38 0.05 0.0
0.39 0.05 0.0
0.4 0.05 0.0
0.41000000000000003 0.05 0.0
0.42 0.05 0.0
0.43 0.05 0.0
0.44 0.05 0.0
0.45 0.05 0.0
0.46 0.05 0.0
0.47000000000000003 0.05 0.0
0.48 0.05 0.0
0.49 0.05 0.0
0.5 0.05 0.0
0.51 0.05 0.0
0.52 0.05 0.0
0.53 0.05 0.0
0.54 0.05 0.0
0.55 0.05 0.0
0.56 0.05 0.0
0.5700000000000001 0.05 0.0
0.58 0.05 0.0
0.59 0.05 0.0
0.6 0.05 0.0
0.61 0.05 0.0
0.62 0.05 0.0
0.63 0.05 0.0
0.64 0.05 0.0
0.65 0.05 0.0
0.66 0.05 0.0
0.67 0.05 0.0
0.68 0.05 0.0
0.6900000000000001 0.05 0.0
0.7000000000000001 0.05 0.0
0.71 0.05 0.0
0.72 0.05 0.0
0.73 0.05 0.0
0.74 0.05 0.0
0.75 0.05 0.0
0.76 0.05 0.0
0.77 0.05 0.0
0.78 0.05 0.0
0.79 0.05 0.0
0.8 0.05 0.0
0.81 0.05 0.0
0.8200000000000001 0.05 0.0
0.8300000000000001 0.05 0.0
0.84 0.05 0.0
0.85 0.05 0.0
0.86 0.05 0.0
0.87 0.05 0.0
0.88 0.05 0.0
0.89 0.05 0.0
0.9 0.05 0.0
0.91 0.05 0.0
0.92 0.05 0.0
0.93 0.05 0.0
0.9400000000000001 0.05 0.0
0.9500000000000001 0.05 0.0
0.96 0.05 0.0
0.97 0.05 0.0
0.98 0.05 0.0
0.99 0.05 0.0
1.0 0.05 0.0
0.0 0.06 0.0
0.01 0.06 0.0
0.02 0.06 0.0
0.03 0.06 0.0
0.04 0.06 0.0
0.05 0.06 0.0
0.06 0.06 0.0
0.07 0.06 0.0
0.08 0.06 0.0
0.09 0.06 0.0
0.1 0.06 0.0
0.11 0.06 0.0
0.12 0.06 0.0
0.13 0.06 0.0
0.14 0.06 0.0
0.15 0.06 0.0
0.16 0.06 0.0
0.17 0.06 0.0
0.18 0.06 0.0
0.19 0.06 0.0
0.2 0.06 0.0
0.21 0.06 0.0
0.22 0.06 0.0
0.23 0.06 0.0
0.24 0.06 0.0
0.25 0.06 0.0
0.26 0.06 0.0
0.27 0.06 0.0
0.28 0.06 0.0
0.29 0.06 0.0
0.3 0.06 0.0
0.31 0.06 0.0
0.32 0.06 0.0
0.33 0.06 0.0
0.34 0.06 0.0
0.35000000000000003 0.06 0.0
0.36 0.06 0.0
0.37 0.06 0.0
0.38 0.06 0.0
0.39 0.06 0.0
0.4 0.06 0.0
0.41000000000000003 0.06 0.0
0.42 0.06 0.0
0.43 0.06 0.0
0.44 0.06 0.0
0.45 0.06 0.0
0.46 0.06 0.0
[...]
POINT_DATA  10201
FIELD  FlowField  5
Density    1 10201  double
7.045801119732339
7.041336549362211
7.0145482643979555
6.937437615027978
6.789575121327249
6.573413112433314
6.310374906436164
6.00482860345012
5.615443555658876
5.102084125563857
4.500232800362379
3.911798839680091
3.4284177273931062
3.081966707599345
2.854053239356461
2.709169792154589
2.616684757909441
2.5565290229323416
2.517038927986478
2.4916075006670697
2.476355531096538
2.4688550297155367
2.4674883488858033
2.4711303443854136
2.4789857267517768
2.490499819274225
2.505303010038208
2.5231693492451397
2.543980295411836
2.5676908665555445
2.5942992589351794
2.6238227938043543
2.6562829770198366
2.691700888623983
2.7301017923550805
2.7715256511926816
2.816038893585474
2.8637426879584247
2.9147741109746725
2.9692986867116358
3.0274952960749806
3.0895366029085425
3.1555691013135885
3.225696695941934
3.2999707318722193
3.3783877131646465
3.4608941681057126
3.5473969598790513
3.637777251110228
3.7319067568293924
3.829665324735346
3.930959315362804
4.035740635428486
4.144026489838898
4.255919903269143
4.371630865804711
4.4914976487955975
4.6160074562755415
4.745815117434683
4.881757963034305
5.02486440405926
5.176353176337445
5.3376198642822565
5.510207427131334
5.695758677129501
5.895951842482498
6.112425114856445
6.346699917516759
6.600116406783291
6.873803564377184
7.168717335386214
7.485785180312293
7.826173192365019
8.19158614185778
8.584568111815642
9.008361534062093
9.465587815701486
9.955622030610641
10.471317822737632
10.996604626329319
11.506644652539196
11.971011905159376
12.35863638045593
12.642585237518553
12.803627238906284
12.832855912795328
12.733911992411311
12.524321990349403
12.234385779799776
11.902365014749865
11.566748840830167
11.258570035060941
10.99696822579895
10.789112851205505
10.633170444795569
10.522134730004906
10.447001858636137
10.398818889976358
10.36980429103252
10.3539798093983
10.348746376804613
6.819777190661676
6.826854823992724
6.829535151818051
6.789293787571933
6.677274548237498
6.4918926995837
6.2528371719850115
5.962603480877288
5.579389098587829
5.0664537171370485
4.463972773696211
3.8759163575911346
3.3933283049944247
3.0469765249820613
2.8181773816890603
2.6718307651566735
2.5778559325618735
2.5165766277344357
2.476527367630052
2.4511658843129265
2.4366062112924296
2.430381466465253
2.430823818238122
2.436756803250289
2.4473375101583894
2.4619697919870926
2.480250175853009
2.5019273557456714
2.5268661799709147
2.555013120110703
2.5863641355359124
2.6209379559184938
2.658758060894362
2.6998452550670002
2.744220359248144
2.7919140681455907
2.8429793083460018
2.8975010032195976
2.9555990660624354
3.0174225212771244
3.083135345945281
3.1528970505464606
3.2268422371094836
3.305063285172845
3.387599356505321
3.4744332272115
3.5654954351316364
3.6606738176945472
3.759826670680855
3.8627983236921226
3.9694361744211477
4.079608643312025
4.193223860815493
4.310249104674719
4.4307310103248865
4.554816380565576
4.682773098052051
4.815010246423779
4.9520960854073595
5.0947720143361686
5.24396015779136
5.400761842109501
5.56644414984153
5.742412178403559
5.930166044869439
6.13124454648922
6.347161269373151
6.579342131058634
6.829076268494745
7.097497309536632
7.385616162027697
7.694422568472479
8.025047024931286
8.378898510510318
8.757688908737983
9.162992983157787
9.595022481248508
10.05068193712555
10.521406896981349
10.991942992861546
11.441084829165785
11.844322055012931
12.177342147023207
12.41921712742835
12.554850821382976
12.577064234343954
12.488659439143836
12.303814518163499
12.047367207202337
11.751043295467227
11.44733762369262
11.163365460153972
10.917090824115753
10.716815417939621
10.563047459197957
10.451216593579444
10.374168390107751
10.324023183408354
10.293420797973202
10.276425518334152
10.270702354973315
6.268011895728357
6.298242244990647
6.362064932109263
6.4027566279663475
6.37473002014523
6.266014441399262
6.088811378581828
5.8374518077932205
5.468212637542281
4.954922349449431
4.35129230114416
3.7663882812452183
3.2887446970131973
2.945576538589494
2.7172844378600214
2.5698818314640084
2.4747701630948873
2.4132852613206124
2.374430928217585
2.3517811970500078
2.341391150733592
2.3406656007740327
2.3477900668426743
2.361443848904006
2.3806489260338335
2.404684559776559
2.4330333896143976
2.465341351849751
2.501382267014448
2.541023366909507
2.584192038984537
2.630846763872792
2.6809562068445514
2.734489498059513
2.791418282394497
2.851728055025859
2.915433732870858
2.982593278989211
3.053313825338738
3.127747112715994
3.2060744430778096
3.288484403208912
3.3751483909445406
3.4661991532831995
3.5617161934646524
3.6617199489344436
3.7661740118339035
3.874992542427912
3.9880510732950167
4.105199847107908
4.226278476149531
4.351131386683832
4.479623958881549
4.611659184543925
4.747194784472161
4.8862606779747715
5.028976371960957
5.175567457809924
5.326380002049353
5.481891241915873
5.6427147286784765
5.809598007021089
5.983411207790676
6.1651257011846345
6.35578330467922
6.556458393854935
6.768217115117976
6.992078998528517
7.228986420898676
7.479786401301126
7.7452251944829715
8.025945954712544
8.322462729886357
8.635066108235693
8.963588107664352
9.306908062581945
9.662267179148444
10.02454318643374
10.38581168343371
10.735492946447232
11.061096116269212
11.349352721855947
11.587336302322491
11.763465040635698
11.868627323401562
11.897679559092774
11.851134122029553
11.736300549218878
11.567035556488158
11.361804360335766
11.14062594577076
10.921998515919004
10.720703548735841
10.54675830685677
10.40530039450955
10.297089717854364
10.21940950929417
10.167213720341676
10.134429970243277
10.115424174994429
10.108737584446555
5.622191294887763
5.67036692445289
5.7857744265979285
5.904082788779922
5.967808990612712
5.951635049859718
5.851550074838017
5.645195225941325
5.287006578678184
4.769236003732733
4.16536122413163
3.5897326057472494
3.1252943945850085
2.7932500408171874
2.5724344477543912
2.4303004445880507
2.3401564486988704
2.284554630574388
2.2529808935253794
2.2390511931323207
2.2386690789348043
2.2490262799787284
2.268086377451562
2.2943111975840456
2.326507947082106
2.3637392708449085
2.4052675388341314
2.4505174462175368
2.49904728738592
2.5505234379872697
2.6046962223611567
2.6613784738106783
2.7204299883138385
2.7817510346726873
2.8452860555455044
2.9110354139969177
2.9790697972234814
3.0495402411558574
3.1226776651789354
3.1987794473368956
3.2781851616048803
3.3612461712474104
3.4482945318842986
3.539617145922102
3.6354377591798004
3.735907491990935
3.841106031603687
3.9510501760176187
4.065704840653576
4.184995234655574
4.3088191178483415
4.437058577512364
4.569591239746911
4.706301075714291
4.847088997798997
4.991883330750343
5.14065002344792
5.293402189301269
5.450208275559178
5.611197915275174
5.7765643742034065
5.946562540537001
6.12150168293371
6.301732754454852
6.487630791917846
6.679573755055133
6.877919650991744
7.082983699864109
7.295016582538798
7.51418359937318
7.740542507311879
7.974014051340754
8.21433411571994
8.460977038566835
8.71304802458528
8.969157236528007
9.227294346341527
9.484690895390294
9.73783766763425
9.982583454179885
10.214080827512056
10.426725619240987
10.614237248805019
10.770005124172512
10.887849847220501
10.963140467851916
10.993863197198552
10.981179104784259
10.929288352894812
10.84477907841474
10.735887577638593
10.611946054193194
10.482901045786301
10.358558518087877
10.247427483082632
10.155454354459533
10.085130293300658
10.035402980719661
10.0025861267845
9.982165822407952
9.974507600628062
5.0265298205601905
5.082993267546147
5.227610504644287
5.401477233907747
5.543607930450442
5.613998597079972
5.5843245903919225
5.411011969893186
5.051841576049806
4.524661626822079
3.92403908915183
3.3665052816186125
2.9258819310615625
2.6155221649082137
2.4121450940195666
2.2845161469092474
2.2077390719560137
2.1654380796880663
2.1474554238901065
2.1473688307721073
2.1608886207413875
2.184969878725884
2.2173305548859057
2.2561804967986294
2.30006407739455
2.3477695064722934
2.3982799078565495
2.4507502166949897
2.5044979026452303
2.558998317231472
2.613878735581536
2.6689090098620913
2.723990209797595
2.7791444122987023
2.8345081238156413
2.890328861211024
2.9469605605050164
3.0048516123629705
3.0645218464592343
3.12653068455858
3.1914427724342325
3.2597953286594303
3.332068311791081
3.4086650816752124
3.4899050374703817
3.5760226998046365
3.6671731386281685
3.763442309273892
3.864859360101755
3.971408241690579
4.083037664347439
4.199669031353356
4.321202402803717
4.447521067496258
4.578495234571285
4.713985173499908
4.853844020406505
4.99792030239596
5.146060055197728
5.29810825910525
5.453909228334915
5.613305593184368
5.776135632809298
5.9422289544335065
6.1114008511512
6.283446051246397
6.458132988836577
6.6352002432797095
6.814357527834443
6.995294413175481
7.177699830714501
7.361293336780839
7.545863823584808
7.731305394796953
7.917641795642869
8.105030686177782
8.293733593641392
8.483979012823369
8.675764993125803
8.868667311695951
9.061550348286051
9.252302955342465
9.437792050988588
9.614064061821432
9.776784416643755
9.921775108245505
10.04542050523015
10.144790468255023
10.21756430807606
10.262061965121932
10.277671545455343
10.265664168498336
10.229991728952687
10.177458240143139
10.116837268029748
10.05703430619954
10.00496483933302
9.964083913530887
9.934302396880135
9.913488026761684
9.904999137897772
4.522760261797558
4.5813031564062126
4.739733837851819
4.951251017844517
5.155365907327411
5.295091478731349
5.31385976166712
5.150835151189457
4.776862557517367
4.239160891517593
3.6494392537726004
3.1210028514018924
2.715360715788793
2.4370276673803355
2.2603227569802526
2.1550512395643997
2.0978316425974017
2.073185746680989
2.071268640117753
2.085662554600794
2.1119605594684967
2.146957675600433
2.1881930606461286
2.233686510925498
2.2817891347316537
2.331106470696357
2.3804687859691125
2.42892975074977
2.4757775508759865
2.5205451980141627
2.563010893618947
2.6031847301726363
2.641283400898591
2.677698050074088
2.7129605252418436
2.7477101065183347
2.7826586239961877
2.8185516999968625
2.856129699903109
2.8960961079674648
2.9390918840087012
2.9856761894646047
3.036317303776614
3.0913897074498458
3.1511775691780826
3.21588481946144
3.285646556766908
3.3605405467900495
3.440599009501468
3.525818445591374
3.616166730315993
3.7115874915077596
3.8120021654374012
3.91731026525967
4.027388410438931
4.142088626008501
4.2612363463644
4.384628469795791
4.512031724511317
4.643181536030117
4.777781537352708
4.915503842649483
5.055990217424262
5.198854340808348
5.343685525506711
5.490054658595371
5.637523906725714
5.785662895820278
5.93407512420424
6.082438065713816
6.2305575039913315
6.378431799680729
6.526318282458105
6.674793150852776
6.824793859320176
6.9776263255610775
7.134901924763154
7.298325101701911
7.469465196736093
7.6495263759012975
7.83905321205565
8.03771633788494
8.244223635223225
8.456373259107224
8.671207224149585
8.8851522041673
9.094040889351781
9.293011134276025
9.476436005552445
9.638138175790228
9.77208946771312
9.873600329088573
9.940719127233782
9.975295948904684
9.983094013602601
9.972601699649612
9.952794245519836
9.930737303212961
9.910221247065481
9.892271989802104
9.883943612883737
4.107889427243106
4.166787184023599
4.33392310009034
4.5742659904447365
4.825685718423083
5.01112301128493
5.0484243520272045
4.871361576974043
4.4736974767393685
3.9304983847344124
3.3630009282554614
2.8752191209317797
2.514137100247644
2.275336960904391
2.130906886586511
2.051640131902491
2.0155743559114354
2.0081479112243152
2.0199616803734273
2.04478690406688
2.0782895958463765
2.1172877183471974
2.1593262767488657
2.2024377901037546
2.2450153915953015
2.2857563130280436
2.323647507815239
2.3579717447334216
2.3883167168784962
2.4145742211130816
2.43692216555142
2.455788450495025
2.4718011006731775
2.48573181855785
2.498439654489456
2.5108185677720485
2.5237498827540046
2.538061413242266
2.554498677267124
2.573709874850878
2.596239523854127
2.6225299802200706
2.652929481781447
2.6876993378833793
2.7270221361189666
2.771014463161361
2.81974083605483
2.873226859591759
2.931470299934857
2.9944493165388146
3.062127699426
3.1344573755724636
3.2113786565797233
3.292818769962078
3.3786892140748757
3.4688824382672006
3.5632682978555783
3.6616906812379266
3.76396465776351
3.869874448648143
3.9791724774304083
4.091579716074309
4.206787533558142
4.324461343549207
4.444246662043064
4.565778869298478
4.68869901949248
4.812678995609989
4.937459068012949
5.062898381610876
5.18903476631345
5.316147879041226
5.444820918772429
5.575996393391079
5.711015817929497
5.85162572864671
5.999867083913619
6.157881730770294
6.327773189312455
6.511382781055029
6.710038320155871
6.924407782331112
7.154380401084437
7.398995455826687
7.656397379119949
7.923762415310567
8.19716167106484
8.471392228833807
8.73988888034973
8.994869243111701
9.227859807278495
9.430694725159565
9.59692302467406
9.723312052859297
9.81088303912931
9.864847323299959
9.893134950354233
9.903932692474513
9.903431210412375
9.895164193594129
9.889378771851362
3.7702898925205446
3.8306434774409004
4.00763028980457
4.272662738026532
4.556089876980078
4.759641909245076
4.785143264899364
4.575841785829058
4.153788883238501
3.615507702675868
3.082929537017832
2.6456436314076077
2.335245094552865
2.1391766504153975
2.0279864117776767
1.9737608022470652
1.9561359668524538
1.9616841429707796
1.9817126758713388
2.0104497059008186
2.0438941747708435
2.079146489564828
2.114030668011276
2.146887420870183
2.17646721402381
2.2018798251998097
2.2225717881618445
2.2383121196382803
2.2491734607048834
2.2555017729417766
2.2578731440910915
2.257040448202276
2.2538749236133295
2.2493081161941255
2.244278736309491
2.2396877188259916
2.236363624947625
2.2350390791475228
2.2363375068461284
2.240766268020573
2.2487193863979376
2.260489703755834
2.276280598225632
2.296218212309233
2.3203665078568303
2.3487425951931176
2.3813310607623324
2.4180962871096003
2.4589921007862237
2.503968527738977
2.552975816974044
2.605966118375754
2.662893291488021
2.7237113287063797
2.7883718382547853
2.8568209764659387
2.928996161936155
3.004822853137807
3.0842116272296787
3.1670557626192144
3.2532295110662366
3.342587273867383
3.4349640231615055
3.53017760690223
3.6280340998352143
3.728338046881729
3.830909950568634
3.9356130306237445
4.042389585243879
4.151304767666495
4.262594439188955
4.376715442912982
4.494398078676652
4.616697832238426
4.745037723591565
4.88120942020361
5.027226639870074
5.185244669367835
5.3575021900618065
5.5460723837029375
5.752688229115153
5.978636929001335
6.224604079170282
6.490508789238334
6.775344019658714
7.077016353525176
7.392183732642181
7.716108867667826
8.042579465672846
8.36394743534337
8.671376519170485
8.955452531794824
9.20725683589738
9.419818552398386
9.589574677326675
9.717193583124999
9.807107288293977
9.865621018847367
9.898465286816197
9.909395591967947
9.909714687555855
3.4992076929902023
3.563069559417104
3.752539061966266
4.037622492060287
4.335173623387689
4.528992402349965
4.518724679882864
4.2690765275021745
3.8295888556944746
3.309323425879603
2.8229095378549363
2.442312621148362
2.184327841077719
2.029818958721782
1.9488704126471652
1.915398820804035
1.9109647474167484
1.9235663362786364
1.9455045066434309
1.9717404585920493
1.9988743361868129
2.024557457202789
2.0471631811579085
2.0656029961862323
2.079220158573361
2.0877213081880166
2.091123562360112
2.089705437886332
2.0839571017853165
2.0745299637135703
2.062187822771077
2.047761953609655
2.0321113811388853
2.016088333921509
2.0005085663008324
1.9861269449210421
1.9736190248670749
1.9635675293490429
1.956451078629113
1.9526380332810098
1.9523880881316429
1.9558625238890919
1.9631408878479903
1.9742385949853107
1.9891242153424629
2.007735471174992
2.0299930074429633
2.055811429166798
2.0851074650293513
2.1178054260685517
2.1538403281321914
2.193159130356057
2.2357205426829623
2.2814938082062364
2.330456797922682
2.382593685338694
2.437892407577663
2.4963420739829476
2.557930457286906
2.6226417046170134
2.6904544524986753
2.7613406473935074
2.8352655882761435
2.9121900235026503
2.9920754838269046
3.074894230924771
3.1606449626095676
3.249374575036792
3.341205206981808
3.4363655441605356
3.5352266510506554
3.638343813689819
3.746504171462835
3.8607765483700693
3.98255868970353
4.113563926247308
4.255688889241105
4.411036082983244
4.58188436179203
4.770440470966589
4.978727356692161
5.208489807085045
5.460995792760887
5.736800092389715
6.035517121877694
6.35563335196135
6.694377482570054
7.047642726043527
7.409976738433504
7.77460259819297
8.133456642682072
8.477412191146385
8.796924803440373
9.08316273531073
9.329403725477682
9.532178853427475
9.691455391225407
9.809390762024366
9.888138136626317
9.928365721982795
9.938821876350842
3.284592030345087
3.3536053156671723
3.5564740832408295
3.8538916260523592
4.1460901480824335
4.306744327738339
4.246990361409567
3.9587623504778504
3.513575874645314
3.024049681724484
2.5915394404148615
2.269372823981726
2.061390228015111
1.9439150849683928
1.8877675277540367
1.869247793075257
1.8721440897108972
1.886124815597146
1.9047151145435712
1.9238310968358248
1.9408865867499718
1.9542806879235264
1.963103095877156
1.9669536659846982
1.9658178291930473
1.9599684173569907
1.94988179233732
1.9361655711605594
1.9194993435147598
1.900590419018867
1.8801451212089189
1.8588535782538262
1.837383507627679
1.8163772949123265
1.7964474241991648
1.778167707219147
1.7620603381564235
1.7485797710042976
1.738094886777444
1.7308775059286317
1.7270994648078917
1.72683818551056
1.7300938829926036
1.7368105021595124
1.746894550908947
1.760231647287399
1.776699895817851
1.7961799349481564
1.8185619282142496
1.8437499825375496
1.871664537235888
1.902243237457196
1.9354407320263127
1.9712277468014883
2.00958969831727
2.0505250395813435
2.094043476448801
2.140164162679289
2.1889139783475087
2.240326025178675
2.2944385402861354
2.3512945405235604
2.410942655085133
2.4734397509578576
2.5388560384692505
2.6072832829016126
2.6788465213257404
2.7537194383634325
2.8321436233669752
2.9144525160616146
3.001101434573892
3.092704630244538
3.1900789594255343
3.2942924645028158
3.4067161399027297
3.5290109443760413
3.6630208190230884
3.810839792986833
3.974807933200647
4.1572965385599066
4.360627827621308
4.586972197212385
4.838105281004994
5.11511072593886
5.418096228850539
5.745981963842385
6.096402587738732
6.465700840828882
6.849046932779414
7.2406090566148755
7.633473709714793
8.019543602499768
8.389852122119212
8.735300196941743
9.047712226866507
9.320861557661456
9.55071653150161
9.73437484041131
9.868092258685842
9.946139551375202
9.970402213074436
3.1162727695723573
3.190946549360663
3.4051162591617294
3.7042492604751525
3.9729000452472993
4.084760108643481
3.9722351862139953
3.6541834198254692
3.2164911850531164
2.767772831138852
2.3925855124251014
2.1265104490011733
1.9630875379981232
1.8762360378017644
1.8385783575482166
1.8292079587689183
1.8343209685026234
1.8453905360880771
1.8572965258695662
1.867034479632561
1.8729368343901314
1.8742171842561128
1.8706911803529387
1.862586590307546
1.850398242735921
1.8347703116365182
1.8164023771590057
1.7959807566897563
1.7741363717417937
1.7514278703530763
1.7283457435403007
1.7053306882447037
1.6827979276899858
1.661158956598368
1.640833555299534
1.6222479459756687
1.6058190594157913
1.5919287522865475
1.5808946422190475
1.5729470302124768
1.5682209406585725
1.5667580425410355
1.5685204259090715
1.5734142609445905
1.5813108887156426
1.5920647490415938
1.6055271770377568
1.621556141410585
1.6400225670285802
1.6608140379923868
1.6838366190921872
1.7090153978747002
1.7362942047894983
1.7656348420358912
1.79701605117451
1.8304323765564654
1.8658930349869516
1.903420880142988
1.9430515517507865
1.9848329231511936
2.0288250043589366
2.0751005157840585
2.123746410367546
2.1748666748562515
2.2285867730940225
2.285060112480671
2.3444769602460576
2.407076375342552
2.4731619796121533
2.5431226495991086
2.617459231187035
2.696818110593904
2.782032131662687
2.8741686186560655