# vtk DataFile Version 3.0 
shock_diffraction_time_series_307_.vtk
ASCII
DATASET UNSTRUCTURED_GRID
POINTS         10201 double
0.0 0.0 0.0
0.01 0.0 0.0
0.02 0.0 0.0
0.03 0.0 0.0
0.04 0.0 0.0
0.05 0.0 0.0
0.06 0.0 0.0
0.07 0.0 0.0
0.08 0.0 0.0
0.09 0.0 0.0
0.1 0.0 0.0
0.11 0.0 0.0
0.12 0.0 0.0
0.13 0.0 0.0
0.14 0.0 0.0
0.15 0.0 0.0
0.16 0.0 0.0
0.17 0.0 0.0
0.18 0.0 0.0
0.19 0.0 0.0
0.2 0.0 0.0
0.21 0.0 0.0
0.22 0.0 0.0
0.23 0.0 0.0
0.24 0.0 0.0
0.25 0.0 0.0
0.26 0.0 0.0
0.27 0.0 0.0
0.28 0.0 0.0
0.29 0.0 0.0
0.3 0.0 0.0
0.31 0.0 0.0
0.32 0.0 0.0
0.33 0.0 0.0
0.34 0.0 0.0
0.35000000000000003 0.0 0.0
0.36 0.0 0.0
0.37 0.0 0.0
0.38 0.0 0.0
0.39 0.0 0.0
0.4 0.0 0.0
0.41000000000000003 0.0 0.0
0.42 0.0 0.0
0.43 0.0 0.0
0.44 0.0 0.0
0.45 0.0 0.0
0.46 0.0 0.0
0.47000000000000003 0.0 0.0
0.48 0.0 0.0
0.49 0.0 0.0
0.5 0.0 0.0
0.51 0.0 0.0
0.52 0.0 0.0
0.53 0.0 0.0
0.54 0.0 0.0
0.55 0.0 0.0
0.56 0.0 0.0
0.5700000000000001 0.0 0.0
0.58 0.0 0.0
0.59 0.0 0.0
0.6 0.0 0.0
0.61 0.0 0.0
0.62 0.0 0.0
0.63 0.0 0.0
0.64 0.0 0.0
0.65 0.0 0.0
0.66 0.0 0.0
0.67 0.0 0.0
0.68 0.0 0.0
0.6900000000000001 0.0 0.0
0.7000000000000001 0.0 0.0
0.71 0.0 0.0
0.72 0.0 0.0
0.73 0.0 0.0
0.74 0.0 0.0
0.75 0.0 0.0
0.76 0.0 0.0
0.77 0.0 0.0
0.78 0.0 0.0
0.79 0.0 0.0
0.8 0.0 0.0
0.81 0.0 0.0
0.8200000000000001 0.0 0.0
0.8300000000000001 0.0 0.0
0.84 0.0 0.0
0.85 0.0 0.0
0.86 0.0 0.0
0.87 0.0 0.0
0.88 0.0 0.0
0.89 0.0 0.0
0.9 0.0 0.0
0.91 0.0 0.0
0.92 0.0 0.0
0.93 0.0 0.0
0.9400000000000001 0.0 0.0
0.9500000000000001 0.0 0.0
0.96 0.0 0.0
0.97 0.0 0.0
0.98 0.0 0.0
0.99 0.0 0.0
1.0 0.0 0.0
0.0 0.01 0.0
0.01 0.01 0.0
0.02 0.01 0.0
0.03 0.01 0.0
0.04 0.01 0.0
0.05 0.01 0.0
0.06 0.01 0.0
0.07 0.01 0.0
0.08 0.01 0.0
0.09 0.01 0.0
0.1 0.01 0.0
0.11 0.01 0.0
0.12 0.01 0.0
0.13 0.01 0.0
0.14 0.01 0.0
0.15 0.01 0.0
0.16 0.01 0.0
0.17 0.01 0.0
0.18 0.01 0.0
0.19 0.01 0.0
0.2 0.01 0.0
0.21 0.01 0.0
0.22 0.01 0.0
0.23 0.01 0.0
0.24 0.01 0.0
0.25 0.01 0.0
0.26 0.01 0.0
0.27 0.01 0.0
0.28 0.01 0.0
0.29 0.01 0.0
0.3 0.01 0.0
0.31 0.01 0.0
0.32 0.01 0.0
0.33 0.01 0.0
0.34 0.01 0.0
0.35000000000000003 0.01 0.0
0.36 0.01 0.0
0.37 0.01 0.0
0.38 0.01 0.0
0.39 0.01 0.0
0.4 0.01 0.0
0.41000000000000003 0.01 0.0
0.42 0.01 0.0
0.43 0.01 0.0
0.44 0.01 0.0
0.45 0.01 0.0
0.46 0.01 0.0
0.47000000000000003 0.01 0.0
0.48 0.01 0.0
0.49 0.01 0.0
0.5 0.01 0.0
0.51 0.01 0.0
0.52 0.01 0.0
0.53 0.01 0.0
0.54 0.01 0.0
0.55 0.01 0.0
0.56 0.01 0.0
0.5700000000000001 0.01 0.0
0.58 0.01 0.0
0.59 0.01 0.0
0.6 0.01 0.0
0.61 0.01 0.0
0.62 0.01 0.0
0.63 0.01 0.0
0.64 0.01 0.0
0.65 0.01 0.0
0.66 0.01 0.0
0.67 0.01 0.0
0.68 0.01 0.0
0.6900000000000001 0.01 0.0
0.7000000000000001 0.01 0.0
0.71 0.01 0.0
0.72 0.01 0.0
0.73 0.01 0.0
0.74 0.01 0.0
0.75 0.01 0.0
0.76 0.01 0.0
0.77 0.01 0.0
0.78 0.01 0.0
0.79 0.01 0.0
0.8 0.01 0.0
0.81 0.01 0.0
0.8200000000000001 0.01 0.0
0.8300000000000001 0.01 0.0
0.84 0.01 0.0
0.85 0.01 0.0
0.86 0.01 0.0
0.87 0.01 0.0
0.88 0.01 0.0
0.89 0.01 0.0
0.9 0.01 0.0
0.91 0.01 0.0
0.92 0.01 0.0
0.93 0.01 0.0
0.9400000000000001 0.01 0.0
0.9500000000000001 0.01 0.0
0.96 0.01 0.0
0.97 0.01 0.0
0.98 0.01 0.0
0.99 0.01 0.0
1.0 0.01 0.0
0.0 0.02 0.0
0.01 0.02 0.0
0.02 0.02 0.0
0.03 0.02 0.0
0.04 0.02 0.0
0.05 0.02 0.0
0.06 0.02 0.0
0.07 0.02 0.0
0.08 0.02 0.0
0.09 0.02 0.0
0.1 0.02 0.0
0.11 0.02 0.0
0.12 0.02 0.0
0.13 0.02 0.0
0.14 0.02 0.0
0.15 0.02 0.0
0.16 0.02 0.0
0.17 0.02 0.0
0.18 0.02 0.0
0.19 0.02 0.0
0.2 0.02 0.0
0.21 0.02 0.0
0.22 0.02 0.0
0.23 0.02 0.0
0.24 0.02 0.0
0.25 0.02 0.0
0.26 0.02 0.0
0.27 0.02 0.0
0.28 0.02 0.0
0.29 0.02 0.0
0.3 0.02 0.0
0.31 0.02 0.0
0.32 0.02 0.0
0.33 0.02 0.0
0.34 0.02 0.0
0.35000000000000003 0.02 0.0
0.36 0.02 0.0
0.37 0.02 0.0
0.38 0.02 0.0
0.39 0.02 0.0
0.4 0.02 0.0
0.41000000000000003 0.02 0.0
0.42 0.02 0.0
0.43 0.02 0.0
0.44 0.02 0.0
0.45 0.02 0.0
0.46 0.02 0.0
0.47000000000000003 0.02 0.0
0.48 0.02 0.0
0.49 0.02 0.0
0.5 0.02 0.0
0.51 0.02 0.0
0.52 0.02 0.0
0.53 0.02 0.0
0.54 0.02 0.0
0.55 0.02 0.0
0.56 0.02 0.0
0.5700000000000001 0.02 0.0
0.58 0.02 0.0
0.59 0.02 0.0
0.6 0.02 0.0
0.61 0.02 0.0
0.62 0.02 0.0
0.63 0.02 0.0
0.64 0.02 0.0
0.65 0.02 0.0
0.66 0.02 0.0
0.67 0.02 0.0
0.68 0.02 0.0
0.6900000000000001 0.02 0.0
0.7000000000000001 0.02 0.0
0.71 0.02 0.0
0.72 0.02 0.0
0.73 0.02 0.0
0.74 0.02 0.0
0.75 0.02 0.0
0.76 0.02 0.0
0.77 0.02 0.0
0.78 0.02 0.0
0.79 0.02 0.0
0.8 0.02 0.0
0.81 0.02 0.0
0.8200000000000001 0.02 0.0
0.8300000000000001 0.02 0.0
0.84 0.02 0.0
0.85 0.02 0.0
0.86 0.02 0.0
0.87 0.02 0.0
0.88 0.02 0.0
0.89 0.02 0.0
0.9 0.02 0.0
0.91 0.02 0.0
0.92 0.02 0.0
0.93 0.02 0.0
0.9400000000000001 0.02 0.0
0.9500000000000001 0.02 0.0
0.96 0.02 0.0
0.97 0.02 0.0
0.98 0.02 0.0
0.99 0.02 0.0
1.0 0.02 0.0
0.0 0.03 0.0
0.01 0.03 0.0
0.02 0.03 0.0
0.03 0.03 0.0
0.04 0.03 0.0
0.05 0.03 0.0
0.06 0.03 0.0
0.07 0.03 0.0
0.08 0.03 0.0
0.09 0.03 0.0
0.1 0.03 0.0
0.11 0.03 0.0
0.12 0.03 0.0
0.13 0.03 0.0
0.14 0.03 0.0
0.15 0.03 0.0
0.16 0.03 0.0
0.17 0.03 0.0
0.18 0.03 0.0
0.19 0.03 0.0
0.2 0.03 0.0
0.21 0.03 0.0
0.22 0.03 0.0
0.23 0.03 0.0
0.24 0.03 0.0
0.25 0.03 0.0
0.26 0.03 0.0
0.27 0.03 0.0
0.28 0.03 0.0
0.29 0.03 0.0
0.3 0.03 0.0
0.31 0.03 0.0
0.32 0.03 0.0
0.33 0.03 0.0
0.34 0.03 0.0
0.35000000000000003 0.03 0.0
0.36 0.03 0.0
0.37 0.03 0.0
0.38 0.03 0.0
0.39 0.03 0.0
0.4 0.03 0.0
0.41000000000000003 0.03 0.0
0.42 0.03 0.0
0.43 0.03 0.0
0.44 0.03 0.0
0.45 0.03 0.0
0.46 0.03 0.0
0.47000000000000003 0.03 0.0
0.48 0.03 0.0
0.49 0.03 0.0
0.5 0.03 0.0
0.51 0.03 0.0
0.52 0.03 0.0
0.53 0.03 0.0
0.54 0.03 0.0
0.55 0.03 0.0
0.56 0.03 0.0
0.5700000000000001 0.03 0.0
0.58 0.03 0.0
0.59 0.03 0.0
0.6 0.03 0.0
0.61 0.03 0.0
0.62 0.03 0.0
0.63 0.03 0.0
0.64 0.03 0.0
0.65 0.03 0.0
0.66 0.03 0.0
0.67 0.03 0.0
0.68 0.03 0.0
0.6900000000000001 0.03 0.0
0.7000000000000001 0.03 0.0
0.71 0.03 0.0
0.72 0.03 0.0
0.73 0.03 0.0
0.74 0.03 0.0
0.75 0.03 0.0
0.76 0.03 0.0
0.77 0.03 0.0
0.78 0.03 0.0
0.79 0.03 0.0
0.8 0.03 0.0
0.81 0.03 0.0
0.8200000000000001 0.03 0.0
0.8300000000000001 0.03 0.0
0.84 0.03 0.0
0.85 0.03 0.0
0.86 0.03 0.0
0.87 0.03 0.0
0.88 0.03 0.0
0.89 0.03 0.0
0.9 0.03 0.0
0.91 0.03 0.0
0.92 0.03 0.0
0.93 0.03 0.0
0.9400000000000001 0.03 0.0
0.9500000000000001 0.03 0.0
0.96 0.03 0.0
0.97 0.03 0.0
0.98 0.03 0.0
0.99 0.03 0.0
1.0 0.03 0.0
0.0 0.04 0.0
0.01 0.04 0.0
0.02 0.04 0.0
0.03 0.04 0.0
0.04 0.04 0.0
0.05 0.04 0.0
0.06 0.04 0.0
0.07 0.04 0.0
0.08 0.04 0.0
0.09 0.04 0.0
0.1 0.04 0.0
0.11 0.04 0.0
0.12 0.04 0.0
0.13 0.04 0.0
0.14 0.04 0.0
0.15 0.04 0.0
0.16 0.04 0.0
0.17 0.04 0.0
0.18 0.04 0.0
0.19 0.04 0.0
0.2 0.04 0.0
0.21 0.04 0.0
0.22 0.04 0.0
0.23 0.04 0.0
0.24 0.04 0.0
0.25 0.04 0.0
0.26 0.04 0.0
0.27 0.04 0.0
0.28 0.04 0.0
0.29 0.04 0.0
0.3 0.04 0.0
0.31 0.04 0.0
0.32 0.04 0.0
0.33 0.04 0.0
0.34 0.04 0.0
0.35000000000000003 0.04 0.0
0.36 0.04 0.0
0.37 0.04 0.0
0.38 0.04 0.0
0.39 0.04 0.0
0.4 0.04 0.0
0.41000000000000003 0.04 0.0
0.42 0.04 0.0
0.43 0.04 0.0
0.44 0.04 0.0
0.45 0.04 0.0
0.46 0.04 0.0
0.47000000000000003 0.04 0.0
0.48 0.04 0.0
0.49 0.04 0.0
0.5 0.04 0.0
0.51 0.04 0.0
0.52 0.04 0.0
0.53 0.04 0.0
0.54 0.04 0.0
0.55 0.04 0.0
0.56 0.04 0.0
0.5700000000000001 0.04 0.0
0.58 0.04 0.0
0.59 0.04 0.0
0.6 0.04 0.0
0.61 0.04 0.0
0.62 0.04 0.0
0.63 0.04 0.0
0.64 0.04 0.0
0.65 0.04 0.0
0.66 0.04 0.0
0.67 0.04 0.0
0.68 0.04 0.0
0.6900000000000001 0.04 0.0
0.7000000000000001 0.04 0.0
0.71 0.04 0.0
0.72 0.04 0.0
0.73 0.04 0.0
0.74 0.04 0.0
0.75 0.04 0.0
0.76 0.04 0.0
0.77 0.04 0.0
0.78 0.04 0.0
0.79 0.04 0.0
0.8 0.04 0.0
0.81 0.04 0.0
0.8200000000000001 0.04 0.0
0.8300000000000001 0.04 0.0
0.84 0.04 0.0
0.85 0.04 0.0
0.86 0.04 0.0
0.87 0.04 0.0
0.88 0.04 0.0
0.89 0.04 0.0
0.9 0.04 0.0
0.91 0.04 0.0
0.92 0.04 0.0
0.93 0.04 0.0
0.9400000000000001 0.04 0.0
0.9500000000000001 0.04 0.0
0.96 0.04 0.0
0.97 0.04 0.0
0.98 0.04 0.0
0.99 0.04 0.0
1.0 0.04 0.0
0.0 0.05 0.0
0.01 0.05 0.0
0.02 0.05 0.0
0.03 0.05 0.0
0.04 0.05 0.0
0.05 0.05 0.0
0.06 0.05 0.0
0.07 0.05 0.0
0.08 0.05 0.0
0.09 0.05 0.0
0.1 0.05 0.0
0.11 0.05 0.0
0.12 0.05 0.0
0.13 0.05 0.0
0.14 0.05 0.0
0.15 0.05 0.0
0.16 0.05 0.0
0.17 0.05 0.0
0.18 0.05 0.0
0.19 0.05 0.0
0.2 0.05 0.0
0.21 0.05 0.0
0.22 0.05 0.0
0.23 0.05 0.0
0.24 0.05 0.0
0.25 0.05 0.0
0.26 0.05 0.0
0.27 0.05 0.0
0.28 0.05 0.0
0.29 0.05 0.0
0.3 0.05 0.0
0.31 0.05 0.0
0.32 0.05 0.0
0.33 0.05 0.0
0.34 0.05 0.0
0.35000000000000003 0.05 0.0
0.36 0.05 0.0
0.37 0.05 0.0
0.38 0.05 0.0
0.39 0.05 0.0
0.4 0.05 0.0
0.41000000000000003 0.05 0.0
0.42 0.05 0.0
0.43 0.05 0.0
0.44 0.05 0.0
0.45 0.05 0.0
0.46 0.05 0.0
0.47000000000000003 0.05 0.0
0.48 0.05 0.0
0.49 0.05 0.0
0.5 0.05 0.0
0.51 0.05 0.0
0.52 0.05 0.0
0.53 0.05 0.0
0.54 0.05 0.0
0.55 0.05 0.0
0.56 0.05 0.0
0.5700000000000001 0.05 0.0
0.58 0.05 0.0
0.59 0.05 0.0
0.6 0.05 0.0
0.61 0.05 0.0
0.62 0.05 0.0
0.63 0.05 0.0
0.64 0.05 0.0
0.65 0.05 0.0
0.66 0.05 0.0
0.67 0.05 0.0
0.68 0.05 0.0
0.6900000000000001 0.05 0.0
0.7000000000000001 0.05 0.0
0.71 0.05 0.0
0.72 0.05 0.0
0.73 0.05 0.0
0.74 0.05 0.0
0.75 0.05 0.0
0.76 0.05 0.0
0.77 0.05 0.0
0.78 0.05 0.0
0.79 0.05 0.0
0.8 0.05 0.0
0.81 0.05 0.0
0.8200000000000001 0.05 0.0
0.8300000000000001 0.05 0.0
0.84 0.05 0.0
0.85 0.05 0.0
0.86 0.05 0.0
0.87 0.05 0.0
0.88 0.05 0.0
0.89 0.05 0.0
0.9 0.05 0.0
0.91 0.05 0.0
0.92 0.05 0.0
0.93 0.05 0.0
0.9400000000000001 0.05 0.0
0.9500000000000001 0.05 0.0
0.96 0.05 0.0
0.97 0.05 0.0
0.98 0.05 0.0
0.99 0.05 0.0
1.0 0.05 0.0
0.0 0.06 0.0
0.01 0.06 0.0
0.02 0.06 0.0
0.03 0.06 0.0
0.04 0.06 0.0
0.05 0.06 0.0
0.06 0.06 0.0
0.07 0.06 0.0
0.08 0.06 0.0
0.09 0.06 0.0
0.1 0.06 0.0
0.11 0.06 0.0
0.12 0.06 0.0
0.13 0.06 0.0
0.14 0.06 0.0
0.15 0.06 0.0
0.16 0.06 0.0
0.17 0.06 0.0
0.18 0.06 0.0
0.19 0.06 0.0
0.2 0.06 0.0
0.21 0.06 0.0
0.22 0.06 0.0
0.23 0.06 0.0
0.24 0.06 0.0
0.25 0.06 0.0
0.26 0.06 0.0
0.27 0.06 0.0
0.28 0.06 0.0
0.29 0.06 0.0
0.3 0.06 0.0
0.31 0.06 0.0
0.32 0.06 0.0
0.33 0.06 0.0
0.34 0.06 0.0
0.35000000000000003 0.06 0.0
0.36 0.06 0.0
0.37 0.06 0.0
0.38 0.06 0.0
0.39 0.06 0.0
0.4 0.06 0.0
0.41000000000000003 0.06 0.0
0.42 0.06 0.0
0.43 0.06 0.0
0.44 0.06 0.0
0.45 0.06 0.0
0.46 0.06 0.0
[...]
POINT_DATA  10201
FIELD  FlowField  4
Density    1 10201  double
1.0000670441104098
1.0000763345566983
1.00010401997287
1.000153409454816
1.0002341147266316
1.0003607172449107
1.0005521307045269
1.0008300543577762
1.0012153656277638
1.0017219439257006
1.00234838861995
1.0030696155797436
1.00383192878899
1.004555474074309
1.0051459336365856
1.005513865345222
1.0055965070538433
1.0053747669798696
1.0048792072763582
1.0041827748737133
1.0033828616701959
1.0025787013750582
1.0018511540897053
1.001250504295538
1.0007944284064338
1.0004743694947282
1.0002661097925314
1.0001401802046943
1.0000693098376632
1.000032150212844
1.0000139847040743
1.0000057018150377
1.000002178183217
1.000000779405656
1.0000002611793155
1.0000000819609842
1.0000000240904314
1.000000006634921
1.0000000017135418
1.0000000004154153
1.0000000000946723
1.000000000020319
1.0000000000041158
1.0000000000007883
1.0000000000001426
1.0000000000000244
1.000000000000004
1.0000000000000004
1.0
1.0
1.0
1.0
1.0
1.0
1.0
1.0
1.0
1.0
1.0
1.0
1.0
1.0
1.0
1.0
1.0
1.0
1.0
1.0
1.0
1.0
1.0
1.0
1.0
1.0
1.0
1.0
1.0
1.0
1.0
1.0
1.0
1.0
1.0
1.0
1.0
1.0
1.0
1.0
1.0
1.0
1.0
1.0
1.0
1.0
1.0
1.0
1.0
1.0
1.0
1.0
1.0
1.0002368278224574
1.0002695782754645
1.000366478326904
1.0005387421464504
1.0008210649042644
1.0012663746581238
1.001943859662243
1.0029336323435818
1.0043134122236057
1.006135465214307
1.008396255777126
1.0110073249942255
1.0137810122876616
1.0164432987988257
1.0186756604302079
1.0201760200139662
1.020722096601748
1.0202199671983108
1.0187255465704506
1.0164343115767025
1.0136424146548664
1.0106879722058448
1.0078851900431816
1.0054679198432228
1.0035589909111158
1.0021725626528633
1.001243373580273
1.0006670646080695
1.0003354672782154
1.0001581254005811
1.0000698443287632
1.0000289008483356
1.0000111993855911
1.0000040629652924
1.00000137959652
1.0000004384019916
1.0000001303877502
1.0000000363062398
1.0000000094704187
1.0000000023163902
1.0000000005319687
1.000000000114907
1.0000000000233946
1.0000000000045006
1.0000000000008202
1.0000000000001419
1.0000000000000233
1.0000000000000036
1.0000000000000004
1.0
1.0
1.0
1.0
1.0
1.0
1.0
1.0
1.0
1.0
1.0
1.0
1.0
1.0
1.0
1.0
1.0
1.0
1.0
1.0
1.0
1.0
1.0
1.0
1.0
1.0
1.0
1.0
1.0
1.0
1.0
1.0
1.0
1.0
1.0
1.0
1.0
1.0
1.0
1.0
1.0
1.0
1.0
1.0
1.0
1.0
1.0
1.0
1.0
1.0
1.0
1.0
1.0014370858567911
1.0016339630112732
1.0022096926865307
1.0032232420129392
1.0048762290258435
1.007466671799183
1.0113616195320432
1.016941765615793
1.0244998130351315
1.0341127579645724
1.0455323861396644
1.0581403902447033
1.0709960197569575
1.0829675428178205
1.0929039990650669
1.0998009614537754
1.102933683432728
1.1019451403647562
1.0968862869711073
1.088211384159322
1.0767322118264229
1.063531776897484
1.0498343673541006
1.0368359048197042
1.0255175054541508
1.0164865678882296
1.0099026426362399
1.005524740108731
1.002866094420365
1.0013852755268777
1.0006249513886125
1.0002634835362145
1.0001038770063344
1.0000383016623995
1.0000132077521233
1.0000042591051579
1.0000012843802135
1.0000003622825027
1.0000000956290713
1.0000000236416005
1.0000000054806422
1.0000000011933308
1.0000000002445473
1.0000000000472848
1.0000000000086517
1.0000000000015024
1.0000000000002482
1.000000000000039
1.0000000000000058
1.0000000000000007
1.0
1.0
1.0
1.0
1.0
1.0
1.0
1.0
1.0
1.0
1.0
1.0
1.0
1.0
1.0
1.0
1.0
1.0
1.0
1.0
1.0
1.0
1.0
1.0
1.0
1.0
1.0
1.0
1.0
1.0
1.0
1.0
1.0
1.0
1.0
1.0
1.0
1.0
1.0
1.0
1.0
1.0
1.0
1.0
1.0
1.0
1.0
1.0
1.0
1.0
1.0
1.008544220507856
1.009668453688765
1.0128783456647723
1.0183426583390531
1.026904861375217
1.0396144622194305
1.0574258827232945
1.0808892012535996
1.1098753624753188
1.1434495099469717
1.1799381221158853
1.2171528928984305
1.2526906247863907
1.2842280794553413
1.3097438143342315
1.327642465187573
1.3368079021373427
1.3366203627094797
1.3269638460012576
1.3082380600102312
1.281378250732967
1.2478740871744023
1.2097579497237645
1.1695185708769475
1.1299030919346673
1.0935977513595874
1.0628202690191855
1.0389124690009925
1.0220791770631343
1.0114364050232845
1.005418888564172
1.002363472611534
1.0009550368271645
1.0003591265662373
1.0001259643135199
1.000041254156333
1.0000126211156355
1.000003608013964
1.000000964195264
1.000000241043484
1.0000000564322575
1.0000000123912705
1.0000000025569178
1.0000000004970366
1.000000000091281
1.0000000000158886
1.0000000000026303
1.0000000000004154
1.0000000000000624
1.0000000000000089
1.000000000000001
1.0
1.0
1.0
1.0
1.0
1.0
1.0
1.0
1.0
1.0
1.0
1.0
1.0
1.0
1.0
1.0
1.0
1.0
1.0
1.0
1.0
1.0
1.0
1.0
1.0
1.0
1.0
1.0
1.0
1.0
1.0
1.0
1.0
1.0
1.0
1.0
1.0
1.0
1.0
1.0
1.0
1.0
1.0
1.0
1.0
1.0
1.0
1.0
1.0
1.0
1.0454459256694792
1.0505475480709983
1.0644371416137255
1.0863019628197172
1.117510003836474
1.159138951587793
1.2111611085654646
1.2722206909607587
1.339765591745163
1.4104627768631217
1.4807265428372944
1.5471889586502297
1.607001795828723
1.6579510142347886
1.6984240729482956
1.7272848271557488
1.7437292308740162
1.7471807865470228
1.737248325280011
1.7137474782108204
1.6767792871207046
1.6268695331432028
1.5651629391340207
1.4936323359147017
1.4152364039009533
1.3339357882376008
1.2544610605324702
1.1817639873605181
1.1201922748058668
1.0725715543656267
1.0394987481511841
1.0192203547012457
1.0083682554003472
1.003294316914236
1.0011890184535672
1.0003973476736512
1.000123559141706
1.000035829708312
1.0000096991485377
1.000002453036398
1.000000580224111
1.0000001285332334
1.000000026716005
1.0000000052226015
1.0000000009629277
1.0000000001679994
1.0000000000278346
1.0000000000043958
1.0000000000006637
1.000000000000096
1.000000000000013
1.0000000000000016
1.0000000000000002
1.0
1.0
1.0
1.0
1.0
1.0
1.0
1.0
1.0
1.0
1.0
1.0
1.0
1.0
1.0
1.0
1.0
1.0
1.0
1.0
1.0
1.0
1.0
1.0
1.0
1.0
1.0
1.0
1.0
1.0
1.0
1.0
1.0
1.0
1.0
1.0
1.0
1.0
1.0
1.0
1.0
1.0
1.0
1.0
1.0
1.0
1.0
1.0
1.1812651179426363
1.1957599487017225
1.2333423699361195
1.287578599074858
1.357397514884787
1.4407735269205204
1.5340102008533556
1.632386032931623
1.731012473221118
1.8255734349643142
1.9127591621231987
1.990379802882369
2.057228527198324
2.112792760428249
2.1569445203386817
2.189668905384639
2.2108494081118195
2.2201455683186992
2.2169599453949025
2.2004699503199268
2.169689955658038
2.123582834233379
2.0612672346160386
1.9823134894067023
1.8871167192829577
1.7773316911416854
1.656295541930453
1.529292637636948
1.403439697462392
1.286927032843551
1.1875087872678143
1.1106205047577546
1.05784539177067
1.026445974555298
1.0105554659286304
1.0037333695426822
1.0011974476909415
1.000354083456095
1.0000972788473221
1.000024911323372
1.000005956372592
1.0000013317528422
1.0000002789353613
1.0000000548539614
1.0000000101565418
1.000000001776367
1.0000000002945462
1.0000000000464844
1.0000000000070102
1.000000000001014
1.000000000000141
1.0000000000000187
1.0000000000000022
1.0000000000000002
1.0
1.0
1.0
1.0
1.0
1.0
1.0
1.0
1.0
1.0
1.0
1.0
1.0
1.0
1.0
1.0
1.0
1.0
1.0
1.0
1.0
1.0
1.0
1.0
1.0
1.0
1.0
1.0
1.0
1.0
1.0
1.0
1.0
1.0
1.0
1.0
1.0
1.0
1.0
1.0
1.0
1.0
1.0
1.0
1.0
1.0
1.0
1.499611668322633
1.523846892462176
1.5848500645940955
1.6674229549384656
1.7649541765717163
1.8709553086667223
1.9788936207443515
2.083105315870368
2.179443092521395
2.2654581628756567
2.3402169399623327
2.40391980717882
2.4574549528562795
2.501969513843599
2.5385229110226746
2.567858086725092
2.590268623398659
2.605543210377073
2.6129814822675597
2.6114465797180575
2.599391482870391
2.574896582098889
2.5357610928547416
2.479632226299
2.4042198007196944
2.3076489837903917
2.1889908152122652
2.0489797603175965
1.890837867459088
1.7209738706794642
1.5491584471845252
1.3876857463618815
1.2490519961598734
1.1424684042266982
1.0708771614218247
1.0300881285344416
1.0108727097900094
1.0034186984974804
1.0009675667083675
1.0002520728545194
1.0000610235562546
1.0000137807830023
1.0000029099322871
1.0000005758879793
1.0000001071110152
1.0000000187837217
1.0000000031173535
1.000000000491581
1.0000000000739657
1.0000000000106637
1.0000000000014788
1.0000000000001976
1.0000000000000249
1.0000000000000027
1.0000000000000002
1.0
1.0
1.0
1.0
1.0
1.0
1.0
1.0
1.0
1.0
1.0
1.0
1.0
1.0
1.0
1.0
1.0
1.0
1.0
1.0
1.0
1.0
1.0
1.0
1.0
1.0
1.0
1.0
1.0
1.0
1.0
1.0
1.0
1.0
1.0
1.0
1.0
1.0
1.0
1.0
1.0
1.0
1.0
1.0
1.0
1.0
1.992074890988163
2.015463140091719
2.0746766915403736
2.1530942943570213
2.240415640134173
2.328518834928567
2.41150614416385
2.4856720064646876
2.5493675435924703
2.6025894791178463
2.6464590293790993
2.682712550671506
2.713274979115495
2.739958821293844
2.7641978765589337
2.7868813787939652
2.808330367137931
2.828303848982148
2.8460454606374475
2.860346710925403
2.869581651872877
2.8717304242628865
2.8643736099333053
2.844665959838742
2.809354459606742
2.7548588274947496
2.6774662654123946
2.5737193125894047
2.4410882743657174
2.2790039940649547
2.090220388365652
1.882192852429088
1.6677657292024655
1.4642278090471537
1.2898991655685812
1.158405336578379
1.0735654493883167
1.0283703663227297
1.0090911412388066
1.0025060180099854
1.0006217041830237
1.0001422924278498
1.0000303254650595
1.000006042918902
1.000001129410406
1.0000001986370481
1.0000000329988792
1.000000005199508
1.0000000007804501
1.00000000011209
1.00000000001547
1.0000000000020597
1.0000000000002651
1.0000000000000326
1.0000000000000036
1.0000000000000004
1.0
1.0
1.0
1.0
1.0
1.0
1.0
1.0
1.0
1.0
1.0
1.0
1.0
1.0
1.0
1.0
1.0
1.0
1.0
1.0
1.0
1.0
1.0
1.0
1.0
1.0
1.0
1.0
1.0
1.0
1.0
1.0
1.0
1.0
1.0
1.0
1.0
1.0
1.0
1.0
1.0
1.0
1.0
1.0
1.0
2.537824622198606
2.546155343122961
2.571668340631641
2.609993708398419
2.6521710872240947
2.6918605938898503
2.7256556879320133
2.7521861459550845
2.771635766097196
2.7852383269533503
2.7948075068702756
2.8023457168433534
2.8097767462398844
2.8188220536433652
2.8307795569390635
2.8463701842750506
2.8657865298243492
2.8887165281697587
2.9143803827814754
2.941582559634109
2.968803927879554
2.9942462359215645
3.0157648340002456
3.0307972863082657
3.0363098302884994
3.0287417892953226
3.0039681203089277
2.9573185806444897
2.883726124081834
2.7781265710993854
2.6362761915146926
2.4561542047574743
2.2400085578830073
1.996666466337657
1.7429336627271834
1.5023574262221358
1.299930142047839
1.1531465557041982
1.0645904769601306
1.0219537581747526
1.0060861656824973
1.001453783690585
1.0003151149713696
1.0000633517166881
1.00001190591695
1.00000210072316
1.0000003493867062
1.0000000550082682
1.0000000082357914
1.0000000011780321
1.0000000001617204
1.0000000000213993
1.0000000000027398
1.0000000000003404
1.0000000000000409
1.0000000000000044
1.0000000000000004
1.0
1.0
1.0
1.0
1.0
1.0
1.0
1.0
1.0
1.0
1.0
1.0
1.0
1.0
1.0
1.0
1.0
1.0
1.0
1.0
1.0
1.0
1.0
1.0
1.0
1.0
1.0
1.0
1.0
1.0
1.0
1.0
1.0
1.0
1.0
1.0
1.0
1.0
1.0
1.0
1.0
1.0
1.0
1.0
3.008723854317674
2.9936415944179426
2.9674245835641937
2.947332067254601
2.9294382068120948
2.9108324780733073
2.8905549742701657
2.8686246458179454
2.8458059707546535
2.823364357136727
2.8028110168643376
2.7856786276100785
2.7734070401522213
2.767333772600155
2.768460330969181
2.7772881147854536
2.793899207969442
2.817961313457591
2.848723667604459
2.885045161160935
2.92554539450845
2.9686760083220136
3.012626098306491
3.0552576099923536
3.0940512448001085
3.1260314788163157
3.147674439217376
3.1548062306058746
3.142508654384052
3.1050732106038423
3.0360922463423217
2.9288648960246775
2.7773972535324547
2.57830571935422
2.3337805588679585
2.055110112051999
1.764819077957645
1.4944502263114785
1.2758389768451932
1.1277307875708706
1.0471740841637176
1.013636310412511
1.003204402119378
1.0006609995888534
1.0001253862971948
1.0000222155055927
1.0000037000948054
1.0000005821167905
1.0000000869219967
1.000000012379395
1.000000001689758
1.0000000002220777
1.0000000000282205
1.0000000000034799
1.000000000000417
1.000000000000048
1.0000000000000049
1.0000000000000004
1.0
1.0
1.0
1.0
1.0
1.0
1.0
1.0
1.0
1.0
1.0
1.0
1.0
1.0
1.0
1.0
1.0
1.0
1.0
1.0
1.0
1.0
1.0
1.0
1.0
1.0
1.0
1.0
1.0
1.0
1.0
1.0
1.0
1.0
1.0
1.0
1.0
1.0
1.0
1.0
1.0
1.0
1.0
3.342091467845457
3.302204770191748
3.2217507533710195
3.1420507742999555
3.0652588030347565
2.9919891428150533
2.9231431378983648
2.859301642181382
2.80103095499568
2.7490253777547737
2.704087993374335
2.667047066414755
2.6387394744871395
2.6200465426296375
2.6116594929830144
2.61391267718198
2.626853364858837
2.6502134242040736
2.683353459723346
2.725253016340808
2.7746699854153465
2.830250546718362
2.890454297779682
2.9534940489800263
3.0172962291410226
3.0794415882004094
3.137087067734538
3.186869331437801
3.224785692874134
3.246049482575307
3.24493088701899
3.2146322655612822
3.147318561901665
3.0345597947716074
2.868628373092519
2.645171083488015
2.3674997004192635
2.0516275220918216
1.7286927324896353
1.4400089648687073
1.2223303011381963
1.0897236776776495
1.0277497217762699
1.0066023416258996
1.001309147926458
1.000234613142196
1.000039186610997
1.0000061619023235
1.0000009175629112
1.0000001300784271
1.0000000176470496
1.0000000023024016
1.0000000002902047
1.000000000035481
1.000000000004222
1.0000000000004898
1.0000000000000553
1.0000000000000058
1.0000000000000004
1.0
1.0
1.0
1.0
1.0
1.0
1.0
1.0
1.0
1.0
1.0
1.0
1.0
1.0
1.0
1.0
1.0
1.0
1.0
1.0
1.0
1.0
1.0
1.0
1.0
1.0
1.0
1.0
1.0
1.0
1.0
1.0
1.0
1.0
1.0
1.0
1.0
1.0
1.0
1.0
1.0
1.0
3.5342419685097903
3.4716464213320983
3.342079240183081
3.2096854149297007
3.08216419553061
2.962852007891117
2.853925751466533
2.7561193517038025
2.6695292778765394
2.5941186403274266
2.529910957986757
2.4770278378346324
2.4357196950074993
2.406396219886931
2.389450897859294
2.3851104980114926
2.393447766986072
2.4143277259631635
2.4473118482264042
2.4915959507528402
2.546101292613995
2.6096260810758527
2.680849044996725
2.7582661373951494
2.8401522855030565
2.9245115759352207
3.0090146898495695
3.090929898715429
3.1670435641286465
3.2335555255990753
3.285930922179362
3.3186986383330375
3.325208522564231
3.2974117041941353
3.2258391868872796
3.1001724764371863
2.9111008992148397
2.6542603314598834
2.3364838462629267
1.9824259944299985
1.6356252628878425
1.3472274917546816
1.152374822924286
1.0509301386326333
1.0125923924430391
1.0024386212747207
1.0004140764742748
1.0000652244948622
1.0000096877749045
1.0000013667339083
1.0000001842047415
1.0000000238449107
1.0000000029791851
1.000000000360828
1.000000000042525
1.0000000000048925
1.000000000000551
1.0000000000000608
1.0000000000000064
1.0000000000000004
1.0
1.0
1.0
1.0
1.0
1.0
1.0
1.0
1.0
1.0
1.0
1.0
1.0
1.0
1.0
1.0
1.0
1.0
1.0
1.0
1.0
1.0
1.0
1.0
1.0
1.0
1.0
1.0
1.0
1.0
1.0
1.0
1.0
1.0
1.0
1.0
1.0
1.0
1.0
1.0
1.0
3.6104704745019367
3.5277209753462238
3.3550084812665752
3.1776718374402915
3.0083051986318594
2.8518137995193706
2.7110144662589493
2.5865233260620526
2.4778863717522537
2.384345298285059
2.3051959496636667
2.239920029763259
2.1882314603846176
2.150071154186966
2.125521018994355
2.1147055290249384
2.117732902863906
2.1346202506546303
2.1651822631432545
2.2089227555115767
2.265007005772724
2.3323899072772907
2.4099404272303437
2.4964240199175256
2.5904431557131034
2.690376814069386
2.7943108682503617
2.8999746364964674
3.0046895757061645
3.105318975034308
3.1981952240308846
3.2789988097997833
3.342563995958957
3.382595129369351
3.3913102681374987
3.3591113607665206
3.274558762424334
3.1252906224262293
2.900976452780364
2.599380198765148
2.235302695707515
1.847795376860459
1.4957330588799873
1.2345156163576076
1.0845555108338742
1.0220693427642313
1.0042535272519009
1.0006877115268655
1.000102254826874
1.0000143588350068
1.0000019217622063
1.0000002466672482
1.0000000305271337
1.0000000036599543
1.0000000004268241
1.0000000000485851
1.0000000000054134
1.0000000000005917
1.0000000000000637
1.0000000000000064
1.0000000000000004
1.0
1.0
1.0
1.0
1.0
1.0
1.0
1.0
1.0
1.0
1.0
1.0
1.0
1.0
1.0
1.0
1.0
1.0
1.0
1.0
1.0
1.0
1.0
1.0
1.0
1.0
1.0
1.0
1.0
1.0
1.0
1.0
1.0
1.0
1.0
1.0
1.0
1.0
1.0
1.0
3.602315008682611
3.5011788865084954
3.289346313909859
3.0726447894718145
2.8685172012289435
2.682325103024734
2.5167727519107284
2.372000771246325
2.246891374274183
2.1399760016808798
2.049881988329515
1.9755113622471023
1.9160846767530015
1.8711101492946973
1.8403393375310653
1.8237219995722853
1.8213401487107959
1.8333164917369553
1.8596967927540426
1.9003222892597176
1.9547136110907546
2.02207097179083
2.1014427641290343
2.1918568307971733
2.2922803679657613
2.401516599395805
2.5181011433072413
2.640210773965263
2.7656042689269515
2.891594316121747
3.015030121522061
3.132264989305799
3.239080299379188
3.330530526238219
3.4006723330206947
3.4421566617898813
3.445719054464642
3.399743417713735
3.290387032731837
3.1033518819835733
2.8289421281252283
2.471520147258122
2.061208109737382
1.6576647112111536
1.332110412533089
1.128228752232926
1.035476730785345
1.0069172937932631
1.0010722058587143
1.0001507225318864
1.0000200363404832
1.000002548472521
1.0000003121642023
1.0000000370167543
1.0000000042681743
1.0000000004803067
1.0000000000529123
1.0000000000057205
1.0000000000006082
1.0000000000000635
1.0000000000000062
1.0000000000000004
1.0
1.0
1.0
1.0
1.0
1.0
1.0
1.0
1.0
1.0
1.0
1.0
1.0
1.0
1.0
1.0
1.0
1.0
1.0
1.0
1.0
1.0
1.0
1.0
1.0
1.0
1.0
1.0
1.0
1.0
1.0
1.0
1.0
1.0
1.0
1.0
1.0
1.0
1.0
3.5368123309798083
3.4181349509504226
3.1691814243982197
2.9164975273014644
2.6828059703772276
2.4730607592712355
2.289010574209995
2.129846670339912
1.9935753219621106
1.877966722900509
1.7810021713596624
1.7010410964807996
1.636843385700251
1.5875291158874916
1.552529833484758
1.5315487272911739
1.5245180976264772
1.5315363494085819
1.552778947107631
1.5883694472973457
1.6382284749178002
1.7019561685352274
1.7788619598370081
1.8681848599443955
1.9692461406170982
2.081354902271404
2.203619437233276
2.334791095260582
2.4731558039716077
2.6164864024846226
2.7620380290187727
2.906560480217191
3.0463087064526193
3.177022196873718
3.2938295173411567
3.391024762142782
3.461666156053668
3.4969815273889617
3.485669934873621
3.4134431348281264
3.2637312070349385
3.021371031542873
2.6814357172386765
2.263301964350331
1.8220038328794792
1.438717056615517
1.179689861077536
1.052484630393102
1.0104553865665824
1.0015655544616031
1.0002085177477105
1.0000262899876708
1.000003184779484
1.0000003731735108
1.0000000425031654
1.0000000047243216
1.000000000514134
1.0000000000549267
1.0000000000057727
1.0000000000005977
1.000000000000061
1.0000000000000058
1.0000000000000004
1.0
1.0
1.0
1.0
1.0
1.0
1.0
1.0
1.0
1.0
1.0
1.0
1.0
1.0
1.0
1.0
1.0
1.0
1.0
1.0
1.0
1.0
1.0
1.0
1.0
1.0
1.0
1.0
1.0
1.0
1.0
1.0
1.0
1.0
1.0
1.0
1.0
1.0
3.4335451652478612
3.2975017616858624
3.012261514289866
2.7259733068587737
2.467044849757159
2.2393109182600206
2.0426894065837544
1.8748998242815231
1.7328062349288091
1.6133238729900368
1.5137843037147223
1.4320331037717575
1.3664069354884016
1.315670943228926
1.2789539960512708
1.2556912138099725
1.245578313798733
1.2485415092820416
1.2647033769861635
1.2943116462379043
1.3376105562100473
1.3946712381133204
1.4652593146853028
1.5488965932783048
1.6451444635352779
1.7537707065151316
1.8745556542195216
2.006991126726208
2.1500869277245167
2.3022654881027815
2.461324389836904
2.6244371717732093
2.788187261316633
2.9486234831759823
3.101301327948385
3.241259747883813
3.362867113658245
3.459463736536805
3.5227466611128193
3.541917008515985
3.50281537950804
3.3877779190133044
3.177967680240782
2.860972002122908
2.4455833430746816
1.979003630682387
1.5469231891047976
1.2352234351329168
1.0719347696482393
1.0146732140634338
1.002136345581075
1.0002703226906047
1.0000324016975681
1.000003748123291
1.0000004212459768
1.000000046202957
1.0000000049627107
1.000000000523464
1.0000000000543432
1.0000000000055627
1.0000000000005622
1.0000000000000555
1.0000000000000049
1.0000000000000004
1.0
1.0
1.0
1.0
1.0
1.0
1.0
1.0
1.0
1.0
1.0
1.0
1.0
1.0
1.0
1.0
1.0
1.0
1.0
1.0
1.0
1.0
1.0
1.0
1.0
1.0
1.0
1.0
1.0
1.0
1.0
1.0
1.0
1.0
1.0
1.0
1.0
3.305170075272948
3.1516091261353947
2.8306948069703823
2.51349206504522
2.2339822838546555
1.994008041577204
1.7908266664992327
1.6202114220129356
1.4776616587123133
1.3591680892356346
1.2614210336271536
1.1817925062546677
1.1182435037794272
1.069221179429907