# vtk DataFile Version 3.0 
shock_diffraction_time_series_553_.vtk
ASCII
DATASET UNSTRUCTURED_GRID
POINTS         10201 double
0.0 0.0 0.0
0.01 0.0 0.0
0.02 0.0 0.0
0.03 0.0 0.0
0.04 0.0 0.0
0.05 0.0 0.0
0.06 0.0 0.0
0.07 0.0 0.0
0.08 0.0 0.0
0.09 0.0 0.0
0.1 0.0 0.0
0.11 0.0 0.0
0.12 0.0 0.0
0.13 0.0 0.0
0.14 0.0 0.0
0.15 0.0 0.0
0.16 0.0 0.0
0.17 0.0 0.0
0.18 0.0 0.0
0.19 0.0 0.0
0.2 0.0 0.0
0.21 0.0 0.0
0.22 0.0 0.0
0.23 0.0 0.0
0.24 0.0 0.0
0.25 0.0 0.0
0.26 0.0 0.0
0.27 0.0 0.0
0.28 0.0 0.0
0.29 0.0 0.0
0.3 0.0 0.0
0.31 0.0 0.0
0.32 0.0 0.0
0.33 0.0 0.0
0.34 0.0 0.0
0.35000000000000003 0.0 0.0
0.36 0.0 0.0
0.37 0.0 0.0
0.38 0.0 0.0
0.39 0.0 0.0
0.4 0.0 0.0
0.41000000000000003 0.0 0.0
0.42 0.0 0.0
0.43 0.0 0.0
0.44 0.0 0.0
0.45 0.0 0.0
0.46 0.0 0.0
0.47000000000000003 0.0 0.0
0.48 0.0 0.0
0.49 0.0 0.0
0.5 0.0 0.0
0.51 0.0 0.0
0.52 0.0 0.0
0.53 0.0 0.0
0.54 0.0 0.0
0.55 0.0 0.0
0.56 0.0 0.0
0.5700000000000001 0.0 0.0
0.58 0.0 0.0
0.59 0.0 0.0
0.6 0.0 0.0
0.61 0.0 0.0
0.62 0.0 0.0
0.63 0.0 0.0
0.64 0.0 0.0
0.65 0.0 0.0
0.66 0.0 0.0
0.67 0.0 0.0
0.68 0.0 0.0
0.6900000000000001 0.0 0.0
0.7000000000000001 0.0 0.0
0.71 0.0 0.0
0.72 0.0 0.0
0.73 0.0 0.0
0.74 0.0 0.0
0.75 0.0 0.0
0.76 0.0 0.0
0.77 0.0 0.0
0.78 0.0 0.0
0.79 0.0 0.0
0.8 0.0 0.0
0.81 0.0 0.0
0.8200000000000001 0.0 0.0
0.8300000000000001 0.0 0.0
0.84 0.0 0.0
0.85 0.0 0.0
0.86 0.0 0.0
0.87 0.0 0.0
0.88 0.0 0.0
0.89 0.0 0.0
0.9 0.0 0.0
0.91 0.0 0.0
0.92 0.0 0.0
0.93 0.0 0.0
0.9400000000000001 0.0 0.0
0.9500000000000001 0.0 0.0
0.96 0.0 0.0
0.97 0.0 0.0
0.98 0.0 0.0
0.99 0.0 0.0
1.0 0.0 0.0
0.0 0.01 0.0
0.01 0.01 0.0
0.02 0.01 0.0
0.03 0.01 0.0
0.04 0.01 0.0
0.05 0.01 0.0
0.06 0.01 0.0
0.07 0.01 0.0
0.08 0.01 0.0
0.09 0.01 0.0
0.1 0.01 0.0
0.11 0.01 0.0
0.12 0.01 0.0
0.13 0.01 0.0
0.14 0.01 0.0
0.15 0.01 0.0
0.16 0.01 0.0
0.17 0.01 0.0
0.18 0.01 0.0
0.19 0.01 0.0
0.2 0.01 0.0
0.21 0.01 0.0
0.22 0.01 0.0
0.23 0.01 0.0
0.24 0.01 0.0
0.25 0.01 0.0
0.26 0.01 0.0
0.27 0.01 0.0
0.28 0.01 0.0
0.29 0.01 0.0
0.3 0.01 0.0
0.31 0.01 0.0
0.32 0.01 0.0
0.33 0.01 0.0
0.34 0.01 0.0
0.35000000000000003 0.01 0.0
0.36 0.01 0.0
0.37 0.01 0.0
0.38 0.01 0.0
0.39 0.01 0.0
0.4 0.01 0.0
0.41000000000000003 0.01 0.0
0.42 0.01 0.0
0.43 0.01 0.0
0.44 0.01 0.0
0.45 0.01 0.0
0.46 0.01 0.0
0.47000000000000003 0.01 0.0
0.48 0.01 0.0
0.49 0.01 0.0
0.5 0.01 0.0
0.51 0.01 0.0
0.52 0.01 0.0
0.53 0.01 0.0
0.54 0.01 0.0
0.55 0.01 0.0
0.56 0.01 0.0
0.5700000000000001 0.01 0.0
0.58 0.01 0.0
0.59 0.01 0.0
0.6 0.01 0.0
0.61 0.01 0.0
0.62 0.01 0.0
0.63 0.01 0.0
0.64 0.01 0.0
0.65 0.01 0.0
0.66 0.01 0.0
0.67 0.01 0.0
0.68 0.01 0.0
0.6900000000000001 0.01 0.0
0.7000000000000001 0.01 0.0
0.71 0.01 0.0
0.72 0.01 0.0
0.73 0.01 0.0
0.74 0.01 0.0
0.75 0.01 0.0
0.76 0.01 0.0
0.77 0.01 0.0
0.78 0.01 0.0
0.79 0.01 0.0
0.8 0.01 0.0
0.81 0.01 0.0
0.8200000000000001 0.01 0.0
0.8300000000000001 0.01 0.0
0.84 0.01 0.0
0.85 0.01 0.0
0.86 0.01 0.0
0.87 0.01 0.0
0.88 0.01 0.0
0.89 0.01 0.0
0.9 0.01 0.0
0.91 0.01 0.0
0.92 0.01 0.0
0.93 0.01 0.0
0.9400000000000001 0.01 0.0
0.9500000000000001 0.01 0.0
0.96 0.01 0.0
0.97 0.01 0.0
0.98 0.01 0.0
0.99 0.01 0.0
1.0 0.01 0.0
0.0 0.02 0.0
0.01 0.02 0.0
0.02 0.02 0.0
0.03 0.02 0.0
0.04 0.02 0.0
0.05 0.02 0.0
0.06 0.02 0.0
0.07 0.02 0.0
0.08 0.02 0.0
0.09 0.02 0.0
0.1 0.02 0.0
0.11 0.02 0.0
0.12 0.02 0.0
0.13 0.02 0.0
0.14 0.02 0.0
0.15 0.02 0.0
0.16 0.02 0.0
0.17 0.02 0.0
0.18 0.02 0.0
0.19 0.02 0.0
0.2 0.02 0.0
0.21 0.02 0.0
0.22 0.02 0.0
0.23 0.02 0.0
0.24 0.02 0.0
0.25 0.02 0.0
0.26 0.02 0.0
0.27 0.02 0.0
0.28 0.02 0.0
0.29 0.02 0.0
0.3 0.02 0.0
0.31 0.02 0.0
0.32 0.02 0.0
0.33 0.02 0.0
0.34 0.02 0.0
0.35000000000000003 0.02 0.0
0.36 0.02 0.0
0.37 0.02 0.0
0.38 0.02 0.0
0.39 0.02 0.0
0.4 0.02 0.0
0.41000000000000003 0.02 0.0
0.42 0.02 0.0
0.43 0.02 0.0
0.44 0.02 0.0
0.45 0.02 0.0
0.46 0.02 0.0
0.47000000000000003 0.02 0.0
0.48 0.02 0.0
0.49 0.02 0.0
0.5 0.02 0.0
0.51 0.02 0.0
0.52 0.02 0.0
0.53 0.02 0.0
0.54 0.02 0.0
0.55 0.02 0.0
0.56 0.02 0.0
0.5700000000000001 0.02 0.0
0.58 0.02 0.0
0.59 0.02 0.0
0.6 0.02 0.0
0.61 0.02 0.0
0.62 0.02 0.0
0.63 0.02 0.0
0.64 0.02 0.0
0.65 0.02 0.0
0.66 0.02 0.0
0.67 0.02 0.0
0.68 0.02 0.0
0.6900000000000001 0.02 0.0
0.7000000000000001 0.02 0.0
0.71 0.02 0.0
0.72 0.02 0.0
0.73 0.02 0.0
0.74 0.02 0.0
0.75 0.02 0.0
0.76 0.02 0.0
0.77 0.02 0.0
0.78 0.02 0.0
0.79 0.02 0.0
0.8 0.02 0.0
0.81 0.02 0.0
0.8200000000000001 0.02 0.0
0.8300000000000001 0.02 0.0
0.84 0.02 0.0
0.85 0.02 0.0
0.86 0.02 0.0
0.87 0.02 0.0
0.88 0.02 0.0
0.89 0.02 0.0
0.9 0.02 0.0
0.91 0.02 0.0
0.92 0.02 0.0
0.93 0.02 0.0
0.9400000000000001 0.02 0.0
0.9500000000000001 0.02 0.0
0.96 0.02 0.0
0.97 0.02 0.0
0.98 0.02 0.0
0.99 0.02 0.0
1.0 0.02 0.0
0.0 0.03 0.0
0.01 0.03 0.0
0.02 0.03 0.0
0.03 0.03 0.0
0.04 0.03 0.0
0.05 0.03 0.0
0.06 0.03 0.0
0.07 0.03 0.0
0.08 0.03 0.0
0.09 0.03 0.0
0.1 0.03 0.0
0.11 0.03 0.0
0.12 0.03 0.0
0.13 0.03 0.0
0.14 0.03 0.0
0.15 0.03 0.0
0.16 0.03 0.0
0.17 0.03 0.0
0.18 0.03 0.0
0.19 0.03 0.0
0.2 0.03 0.0
0.21 0.03 0.0
0.22 0.03 0.0
0.23 0.03 0.0
0.24 0.03 0.0
0.25 0.03 0.0
0.26 0.03 0.0
0.27 0.03 0.0
0.28 0.03 0.0
0.29 0.03 0.0
0.3 0.03 0.0
0.31 0.03 0.0
0.32 0.03 0.0
0.33 0.03 0.0
0.34 0.03 0.0
0.35000000000000003 0.03 0.0
0.36 0.03 0.0
0.37 0.03 0.0
0.38 0.03 0.0
0.39 0.03 0.0
0.4 0.03 0.0
0.41000000000000003 0.03 0.0
0.42 0.03 0.0
0.43 0.03 0.0
0.44 0.03 0.0
0.45 0.03 0.0
0.46 0.03 0.0
0.47000000000000003 0.03 0.0
0.48 0.03 0.0
0.49 0.03 0.0
0.5 0.03 0.0
0.51 0.03 0.0
0.52 0.03 0.0
0.53 0.03 0.0
0.54 0.03 0.0
0.55 0.03 0.0
0.56 0.03 0.0
0.5700000000000001 0.03 0.0
0.58 0.03 0.0
0.59 0.03 0.0
0.6 0.03 0.0
0.61 0.03 0.0
0.62 0.03 0.0
0.63 0.03 0.0
0.64 0.03 0.0
0.65 0.03 0.0
0.66 0.03 0.0
0.67 0.03 0.0
0.68 0.03 0.0
0.6900000000000001 0.03 0.0
0.7000000000000001 0.03 0.0
0.71 0.03 0.0
0.72 0.03 0.0
0.73 0.03 0.0
0.74 0.03 0.0
0.75 0.03 0.0
0.76 0.03 0.0
0.77 0.03 0.0
0.78 0.03 0.0
0.79 0.03 0.0
0.8 0.03 0.0
0.81 0.03 0.0
0.8200000000000001 0.03 0.0
0.8300000000000001 0.03 0.0
0.84 0.03 0.0
0.85 0.03 0.0
0.86 0.03 0.0
0.87 0.03 0.0
0.88 0.03 0.0
0.89 0.03 0.0
0.9 0.03 0.0
0.91 0.03 0.0
0.92 0.03 0.0
0.93 0.03 0.0
0.9400000000000001 0.03 0.0
0.9500000000000001 0.03 0.0
0.96 0.03 0.0
0.97 0.03 0.0
0.98 0.03 0.0
0.99 0.03 0.0
1.0 0.03 0.0
0.0 0.04 0.0
0.01 0.04 0.0
0.02 0.04 0.0
0.03 0.04 0.0
0.04 0.04 0.0
0.05 0.04 0.0
0.06 0.04 0.0
0.07 0.04 0.0
0.08 0.04 0.0
0.09 0.04 0.0
0.1 0.04 0.0
0.11 0.04 0.0
0.12 0.04 0.0
0.13 0.04 0.0
0.14 0.04 0.0
0.15 0.04 0.0
0.16 0.04 0.0
0.17 0.04 0.0
0.18 0.04 0.0
0.19 0.04 0.0
0.2 0.04 0.0
0.21 0.04 0.0
0.22 0.04 0.0
0.23 0.04 0.0
0.24 0.04 0.0
0.25 0.04 0.0
0.26 0.04 0.0
0.27 0.04 0.0
0.28 0.04 0.0
0.29 0.04 0.0
0.3 0.04 0.0
0.31 0.04 0.0
0.32 0.04 0.0
0.33 0.04 0.0
0.34 0.04 0.0
0.35000000000000003 0.04 0.0
0.36 0.04 0.0
0.37 0.04 0.0
0.38 0.04 0.0
0.39 0.04 0.0
0.4 0.04 0.0
0.41000000000000003 0.04 0.0
0.42 0.04 0.0
0.43 0.04 0.0
0.44 0.04 0.0
0.45 0.04 0.0
0.46 0.04 0.0
0.47000000000000003 0.04 0.0
0.48 0.04 0.0
0.49 0.04 0.0
0.5 0.04 0.0
0.51 0.04 0.0
0.52 0.04 0.0
0.53 0.04 0.0
0.54 0.04 0.0
0.55 0.04 0.0
0.56 0.04 0.0
0.5700000000000001 0.04 0.0
0.58 0.04 0.0
0.59 0.04 0.0
0.6 0.04 0.0
0.61 0.04 0.0
0.62 0.04 0.0
0.63 0.04 0.0
0.64 0.04 0.0
0.65 0.04 0.0
0.66 0.04 0.0
0.67 0.04 0.0
0.68 0.04 0.0
0.6900000000000001 0.04 0.0
0.7000000000000001 0.04 0.0
0.71 0.04 0.0
0.72 0.04 0.0
0.73 0.04 0.0
0.74 0.04 0.0
0.75 0.04 0.0
0.76 0.04 0.0
0.77 0.04 0.0
0.78 0.04 0.0
0.79 0.04 0.0
0.8 0.04 0.0
0.81 0.04 0.0
0.8200000000000001 0.04 0.0
0.8300000000000001 0.04 0.0
0.84 0.04 0.0
0.85 0.04 0.0
0.86 0.04 0.0
0.87 0.04 0.0
0.88 0.04 0.0
0.89 0.04 0.0
0.9 0.04 0.0
0.91 0.04 0.0
0.92 0.04 0.0
0.93 0.04 0.0
0.9400000000000001 0.04 0.0
0.9500000000000001 0.04 0.0
0.96 0.04 0.0
0.97 0.04 0.0
0.98 0.04 0.0
0.99 0.04 0.0
1.0 0.04 0.0
0.0 0.05 0.0
0.01 0.05 0.0
0.02 0.05 0.0
0.03 0.05 0.0
0.04 0.05 0.0
0.05 0.05 0.0
0.06 0.05 0.0
0.07 0.05 0.0
0.08 0.05 0.0
0.09 0.05 0.0
0.1 0.05 0.0
0.11 0.05 0.0
0.12 0.05 0.0
0.13 0.05 0.0
0.14 0.05 0.0
0.15 0.05 0.0
0.16 0.05 0.0
0.17 0.05 0.0
0.18 0.05 0.0
0.19 0.05 0.0
0.2 0.05 0.0
0.21 0.05 0.0
0.22 0.05 0.0
0.23 0.05 0.0
0.24 0.05 0.0
0.25 0.05 0.0
0.26 0.05 0.0
0.27 0.05 0.0
0.28 0.05 0.0
0.29 0.05 0.0
0.3 0.05 0.0
0.31 0.05 0.0
0.32 0.05 0.0
0.33 0.05 0.0
0.34 0.05 0.0
0.35000000000000003 0.05 0.0
0.36 0.05 0.0
0.37 0.05 0.0
0.38 0.05 0.0
0.39 0.05 0.0
0.4 0.05 0.0
0.41000000000000003 0.05 0.0
0.42 0.05 0.0
0.43 0.05 0.0
0.44 0.05 0.0
0.45 0.05 0.0
0.46 0.05 0.0
0.47000000000000003 0.05 0.0
0.48 0.05 0.0
0.49 0.05 0.0
0.5 0.05 0.0
0.51 0.05 0.0
0.52 0.05 0.0
0.53 0.05 0.0
0.54 0.05 0.0
0.55 0.05 0.0
0.56 0.05 0.0
0.5700000000000001 0.05 0.0
0.58 0.05 0.0
0.59 0.05 0.0
0.6 0.05 0.0
0.61 0.05 0.0
0.62 0.05 0.0
0.63 0.05 0.0
0.64 0.05 0.0
0.65 0.05 0.0
0.66 0.05 0.0
0.67 0.05 0.0
0.68 0.05 0.0
0.6900000000000001 0.05 0.0
0.7000000000000001 0.05 0.0
0.71 0.05 0.0
0.72 0.05 0.0
0.73 0.05 0.0
0.74 0.05 0.0
0.75 0.05 0.0
0.76 0.05 0.0
0.77 0.05 0.0
0.78 0.05 0.0
0.79 0.05 0.0
0.8 0.05 0.0
0.81 0.05 0.0
0.8200000000000001 0.05 0.0
0.8300000000000001 0.05 0.0
0.84 0.05 0.0
0.85 0.05 0.0
0.86 0.05 0.0
0.87 0.05 0.0
0.88 0.05 0.0
0.89 0.05 0.0
0.9 0.05 0.0
0.91 0.05 0.0
0.92 0.05 0.0
0.93 0.05 0.0
0.9400000000000001 0.05 0.0
0.9500000000000001 0.05 0.0
0.96 0.05 0.0
0.97 0.05 0.0
0.98 0.05 0.0
0.99 0.05 0.0
1.0 0.05 0.0
0.0 0.06 0.0
0.01 0.06 0.0
0.02 0.06 0.0
0.03 0.06 0.0
0.04 0.06 0.0
0.05 0.06 0.0
0.06 0.06 0.0
0.07 0.06 0.0
0.08 0.06 0.0
0.09 0.06 0.0
0.1 0.06 0.0
0.11 0.06 0.0
0.12 0.06 0.0
0.13 0.06 0.0
0.14 0.06 0.0
0.15 0.06 0.0
0.16 0.06 0.0
0.17 0.06 0.0
0.18 0.06 0.0
0.19 0.06 0.0
0.2 0.06 0.0
0.21 0.06 0.0
0.22 0.06 0.0
0.23 0.06 0.0
0.24 0.06 0.0
0.25 0.06 0.0
0.26 0.06 0.0
0.27 0.06 0.0
0.28 0.06 0.0
0.29 0.06 0.0
0.3 0.06 0.0
0.31 0.06 0.0
0.32 0.06 0.0
0.33 0.06 0.0
0.34 0.06 0.0
0.35000000000000003 0.06 0.0
0.36 0.06 0.0
0.37 0.06 0.0
0.38 0.06 0.0
0.39 0.06 0.0
0.4 0.06 0.0
0.41000000000000003 0.06 0.0
0.42 0.06 0.0
0.43 0.06 0.0
0.44 0.06 0.0
0.45 0.06 0.0
0.46 0.06 0.0
[...]
POINT_DATA  10201
FIELD  FlowField  5
Density    1 10201  double
5.219500880230553
5.149822997023421
4.982802074666803
4.779252257630887
4.565524663085703
4.353847494444161
4.152103566193813
3.9653523787059406
3.7962106703822247
3.6454024107787197
3.5123400948207353
3.3956545566294736
3.2938010088490675
3.205546529455291
3.130033249649051
3.0667939404486333
3.015799319927022
2.9773712325225556
2.9517916584092383
2.93911360291907
2.9391939041657604
2.951546234394457
2.975369929632126
3.009686519137494
3.0534725273934678
3.105750921547852
3.165630950399682
3.232315892181721
3.3050936291757296
3.3833139517894573
3.4663587773525375
3.553615620695624
3.644465466158946
3.7382805560327035
3.834414687993333
3.932194284956293
4.03091616898388
4.129858571555889
4.228291654774852
4.325491042759118
4.4207778394892525
4.513573459112294
4.603439363085791
4.690087735490813
4.77338769768985
4.853369860527229
4.930223603625778
5.004290844396085
5.076060314232466
5.146164717291715
5.215381137927062
5.284632181007051
5.354984205610112
5.427640877852746
5.503931041529887
5.5852895817686345
5.673229924111771
5.769307151075651
5.875071360642364
5.992011666835083
6.121491687634167
6.26467684194339
6.422452526828387
6.595333237259624
6.783369162957473
6.986062145081592
7.202297244921148
7.430293729191623
7.667598888032192
7.911134462559745
8.157296812407676
8.402129590953194
8.641545642821692
8.871575823592767
9.088563622981047
9.289214158152339
9.470555395093237
9.62976924074297
9.763793024899375
9.868804287183318
9.939617198721123
9.96883679373102
9.945871815692204
9.855767915954914
9.677854998059043
9.384718535154885
8.942586648436741
8.31476029015183
7.470237098217568
6.399743933050387
5.139180211989341
3.7967918874374247
2.561484202753471
1.6518058702007292
1.177128199410613
1.0271945858892333
1.0026296475347989
1.0002315382583506
1.0000207022594547
1.000001891353578
1.00000033416929
5.171336222700339
5.094605273633368
4.914368389585335
4.701062482762592
4.482031117177048
4.268241160561032
4.066587174828338
3.8814242081067545
3.7148289343572998
3.5670415051076247
3.437020964851887
3.3229792469429342
3.223030868298981
3.1357371562309466
3.0601579253938644
2.995836496260929
2.9428382292244484
2.901587984850855
2.8724175084291694
2.8554440338582943
2.850600595260819
2.857443934212233
2.8752018277196845
2.9029091314371547
2.939539112677216
2.9840979532761924
3.0356733306000447
3.0934493189733443
3.156702216179757
3.2247838292930426
3.297099283013214
3.373090938421551
3.452239723464199
3.5340672125700356
3.618143718818931
3.7040723793235
3.791446368629414
3.8798460171558227
3.9688245965871554
4.057892663523533
4.146545522373671
4.234303364471053
4.320750202462937
4.405557324867589
4.488498810384601
4.569465278486772
4.648471579466763
4.725659195826946
4.801297123303024
4.875783707313802
4.9496510060301615
5.0235706889917555
5.098357760335573
5.17496982250406
5.254501196195312
5.338170933988852
5.427303518310597
5.523301143712137
5.627606860531991
5.74165838725737
5.866832709293578
6.004381140105951
6.155353568699061
6.3205116672465245
6.500236515105255
6.694440406141105
6.902486935462162
7.123121589713381
7.354433342512903
7.593853765128025
7.83819760460576
8.08377398713037
8.32655636197909
8.562407674056864
8.787270108261302
8.997235623104467
9.188552246093446
9.357475088874649
9.49985826041815
9.61060274157103
9.682967718186447
9.707688252965248
9.671986183662046
9.55854621279805
9.34499134533662
9.004729017041525
8.510326787853128
7.840702731283845
6.991769842590634
5.9864590521533625
4.876761986530586
3.7391432741886614
2.676394683958363
1.8225026277997927
1.291112159085086
1.0659953783890206
1.0089379874538222
1.0008820521034727
1.0000820996103186
1.0000076483298164
1.0000013630157527
5.056759070694209
4.962670559993992
4.7513236035269015
4.517032465126203
4.287957627947618
4.071397460316503
3.871681003555812
3.69148669655334
3.5316454035125746
3.391315053380736
3.26845216499893
3.1603412801831268
3.064377906951646
2.978706172059133
2.902225460205743
2.834555608026787
2.776033391388431
2.7272197237346054
2.6884910583917176
2.660145211148619
2.64228228331432
2.6345983383895963
2.636453286699194
2.64697838106076
2.6651702652631024
2.6900046520923144
2.7205300081388284
2.7559051348040446
2.7954081837475395
2.838431352387637
2.8844731605641405
2.9331365604800954
2.9841349134807533
3.037303075577825
3.0926436605828407
3.1503058912249893
3.2105038946315108
3.2734722838610315
3.339366262769448
3.408194889164592
3.4798384291712323
3.554058950200993
3.630503615816851
3.7087508364351662
3.788388478848955
3.8690507648754324
3.9504304912433033
4.0322927914937585
4.114484977487771
4.196944836543148
4.279709738838576
4.362929422411954
4.446879842657893
4.531973857257787
4.618768196645803
4.7079666984071995
4.800419200442238
4.89711523478875
4.9991715157991
5.107812131835965
5.224340130939706
5.350098555419057
5.486418215824238
5.634550233816935
5.795585168281414
5.9703629253155555
6.159372542686497
6.362640192117578
6.5796178352542025
6.809070220462919
7.04896758525214
7.296431240905195
7.547741569675841
7.798452376981501
8.043525531079295
8.27740907915279
8.494111884062354
8.687086773136475
8.84878144380702
8.969967911366155
9.038784629288411
9.039742623014497
8.953364893049683
8.757108585266336
8.42884279149918
7.954290381551459
7.338193828961718
6.614517742219975
5.843520836728371
5.08640273559836
4.370828533112602
3.677414063990423
2.968177097175086
2.2519308515005245
1.6286611170064142
1.2229496661121324
1.0494686154538364
1.00649158231782
1.0006364713532712
1.0000595144906985
1.0000105721826138
4.912812999091507
4.7970102876604805
4.548391500307639
4.291232854119298
4.053098980447671
3.836381158908183
3.6417846774380123
3.4696568403923034
3.319201570682174
3.1882836500285663
3.073725696470522
2.971813264966468
2.879289881207349
2.7939927599661702
2.7147879693725923
2.641619622412734
2.575129683588277
2.5158913299748837
2.4643974248636145
2.4211745328215097
2.3864312734655266
2.3599529140107505
2.3411970074652455
2.3294385246277955
2.3238871846519147
2.323743178262479
2.328164608170201
2.336264344216815
2.3472667346515474
2.360605804637842
2.3759029696361065
2.3929690215508943
2.411811158253604
2.4326419708986826
2.4558956787051773
2.482174034076266
2.5121623808989475
2.5465692314760435
2.58599571083075
2.6308615140831737
2.681392794297289
2.7375932062206325
2.79921229089493
2.865781064949055
2.936732870484941
3.011496487612676
3.089565369445546
3.1704926088351137
3.253864674076823
3.3393098084394777
3.4265021539068856
3.5151733783825074
3.6051315904613954
3.6962807728160616
3.788638439232091
3.882352460666459
3.977717265178592
4.075189286905654
4.175401191315977
4.279173913854735
4.387524768050894
4.501668689499421
4.623008353794392
4.753108327987811
4.893649499984983
5.046360410104724
5.212918085215949
5.394810633610448
5.593161661327546
5.808501387742383
6.040486494674445
6.287617384192477
6.546967699305569
6.81402359393822
7.082601506234658
7.344757248547393
7.590761430434894
7.808925846106439
7.984938742844046
8.100892893003822
8.134843773396582
8.061741340684902
7.857072730346277
7.50510487512485
7.011877964726425
6.417662368023227
5.7951759020076965
5.22442300203284
4.756952838698365
4.3936440324054145
4.086108426166744
3.757198854058179
3.3322187974805946
2.77618654448915
2.1374690942924817
1.5598454719656683
1.1896540737651864
1.039291437298341
1.0048279074027144
1.000463813125135
1.0000820032340387
4.748319789670315
4.608640045953796
4.320682025909759
4.041474233524762
3.7963571886306253
3.5824136662749635
3.395908665239881
3.2342046643311835
3.094544653115683
2.973406054418249
2.866493447068385
2.7692950930897005
2.6782249358216843
2.59109644251049
2.5071124290069653
2.4267397976782656
2.350706297409152
2.2796518265948387
2.2144197206931455
2.1557346919671674
2.103869849021237
2.0586379814160107
2.0195209580878775
1.985867140132891
1.9570667006730798
1.9326027977552889
1.9119854640716722
1.8946432618402063
1.8798967488822262
1.8670975020089877
1.8559275399155208
1.8464782807572488
1.8391013666716165
1.8343475710016515
1.832913500781967
1.8355630622569363
1.8430503222905765
1.8560687430404412
1.875176873862033
1.9007784996241774
1.9331299018609478
1.97231850258854
2.0181978029983543
2.0703693456464456
2.128287122498478
2.1913658921169956
2.25906606016718
2.330906393338915
2.406491319679179
2.485480453739087
2.567511934853475
2.652207978283835
2.739194660065078
2.828124900557231
2.9187003597233967
3.0106949571738495
3.10398121070216
3.1985597907923338
3.2945924716715265
3.392438346142174
3.492692476833493
3.596224903431117
3.7042161436670122
3.81818327809019
3.9399889640820995
4.071823602574421
4.216146570483472
4.375570088349832
4.552670054033818
4.749692915758352
4.968141392728814
5.2082585896142275
5.468394720702685
5.744368152074456
6.028871888407213
6.310823777450919
6.574757839941315
6.800024248007847
6.960297184010042
7.024557501544557
6.961208301618879
6.7474692960633345
6.384358838138735
5.91111956975484
5.403436300543719
4.946866735655638
4.601378170289585
4.381028704120244
4.256482264933479
4.174486092608479
4.079985178099884
3.9246923267684775
3.663528987631474
3.257247452523925
2.6985239359800253
2.0590942227285662
1.4987052567562102
1.1582744031222834
1.0301151657100103
1.0034691601188468
1.0006237522344648
4.563837914213044
4.398167025825755
4.070510436948567
3.7733177977297183
3.525801258974286
3.318815658838308
3.143606386914878
2.9941928742372568
2.865774928747352
2.7535545585489545
2.652356473335804
2.5573840102678314
2.465198694020295
2.3740051581199175
2.2837243752534246
2.1950702860449014
2.1087591596331774
2.025841950506387
1.9475499422530862
1.8747746786654569
1.8078942273524499
1.7468099806155641
1.6910928699391956
1.640167368911019
1.5934800329915593
1.5506163592762705
1.5113559789481887
1.47557772711702
1.4430507989791004
1.4134587326337837
1.3866634231557438
1.3628372429885638
1.3424240487796013
1.3260001214299317
1.3141395367094226
1.3073577343858744
1.3060635909547367
1.3105304352391596
1.320883249174859
1.337134016258907
1.3592369669444024
1.3871098850097638
1.4205883292393453
1.4594039145858833
1.50321739925062
1.551657185034059
1.6043661665078348
1.661027716303217
1.7214110589112437
1.7853535064736554
1.8527293258638868
1.9233881730478144
1.9970962829176817
2.073574840067061
2.1525256479405437
2.23365200643288
2.316684579032109
2.401413555222726
2.4877276108065094
2.5756600681994213
2.6654424074361565
2.7575645743610075
2.8528401463063178
2.952472132399139
3.0581121477807813
3.1719017728639463
3.2964790247103366
3.434926052142559
3.590626951232334
3.7669865286033524
3.966959579628574
4.192352119679829
4.442807167765443
4.714515372209005
4.998746241845089
5.279962748688614
5.533801581086392
5.726676922216005
5.819049325380408
5.774757310808175
5.578527765084137
5.255949762841971
4.877315355263696
4.531333232243529
4.284488101213058
4.155972518350032
4.120778070817506
4.133864379109572
4.1561672791420365
4.163211131196802
4.137624520810775
4.059653783256033
3.9012788235513525
3.625431437146101
3.1970466251533067
2.6171180470911315
1.9727813757845625
1.4338028688614717
1.1274848723833417
1.0221716027899146
1.0045795298264477
4.354474046997708
4.161856061334618
3.7970065841835754
3.489003957951396
3.245795630499923
3.0508250981610274
2.8900671181470785
2.754234570598757
2.6367100112697717
2.531715129292997
2.433784384584738
2.338503726732008
2.243068718143881
2.146582239359981
2.049489539677578
1.952487124012759
1.8567132108223285
1.7637983504170067
1.6752540715020163
1.5921245509658521
1.5148995948480821
1.4435888961099421
1.3778861771175768
1.3173538700247893
1.261579725494977
1.21027955156118
1.1633347124663584
1.1207599228536687
1.0826374318685124
1.0490758760176968
1.0201542885432766
0.9959705323715919
0.976678670767129
0.9624550585851197
0.9534587870658282
0.9497428297231923
0.9512259888104416
0.9576991988351108
0.9688539097702021
0.9843292265410428
1.003759313766323
1.0268072508752673
1.0531817229384126
1.082656090829933
1.1150605496657304
1.1502511049498834
1.1881312762325655
1.2286672954859577
1.2718555896174821
1.3177186719150213
1.3663499269043335
1.4178835535121936
1.4723904879352
1.5298511811950242
1.5901854960235222
1.653272141999472
1.7189653803523262
1.7871187738287637
1.857617279577854
1.9304185233010294
2.0056040562641275
2.083441165542532
2.16445511050006
2.2495101296714965
2.3398949990781093
2.4374049554129935
2.5444050936495746
2.6638497954625935
2.799217811520853
2.954295539887034
3.132714961437443
3.3371281971508573
3.567824703206196
3.8206876108721133
4.084379575819531
4.3367907887774
4.543234755443027
4.660710661237791
4.652047630883937
4.510167414917438
4.278257345195208
4.03914112298203
3.8714381842096213
3.8086751126666636
3.8336577523179223
3.904991085423112
3.9873500213697786
4.061840155240792
4.120097818517166
4.156997235288268
4.166187782036892
4.136803722298952
4.050229692652338
3.8773573522632554
3.5798213309277407
3.1243208614953533
2.5217410740041966
1.8768142202851759
1.3668591718374519
1.0996684822242413
1.029748990950647
4.111601481809291
3.8947398997880707
3.5006105988554834
3.1915453829896054
2.960340996265327
2.782370333896057
2.6385926992943025
2.5168655990942064
2.4092025302896056
2.309420875986558
2.2125951200059975
2.1152682917283725
2.0157716413156908
1.9140908839579924
1.8108075544281264
1.7070469889915594
1.6046981159677318
1.505803203047965
1.4120570589685741
1.3245906111633605
1.2439455755388011
1.170185706212426
1.1030762933469682
1.0422650273962037
0.987420453912335
0.9383099291415871
0.894816677666811
0.8569081788707154
0.8245832831347605
0.7978339153588245
0.7766440755678103
0.7609881790078509
0.7507577567924528
0.7457404112369616
0.745682624548627
0.7502771076875898
0.7591252211289635
0.7717471792963727
0.7876122225343491
0.8061749989565402
0.8269117939796746
0.8493531505078789
0.8731112166254626
0.8979087623441502
0.9235985550972219
0.9501256686273827
0.977511497641055
1.0058725759264684
1.0353892278964323
1.0662640688040452
1.0987101123489333
1.1329943755837637
1.1694019335101167
1.2081493726923578
1.2493910511145045
1.2932386295557632
1.3397683308839108
1.3890332022475818
1.4410827004081308
1.495990839531071
1.5538942172059111
1.615041274268868
1.679853955602837
1.7490022231458413
1.823490309785121
1.9047505214400937
1.9947340997735583
2.095976696974448
2.2115953677458204
2.345135418611344
2.5001301407802368
2.6791650781342944
2.8821319673135513
3.103306007138621
3.327177727663993
3.525278671395795
3.6589174225980434
3.693531100295527
3.6249844811661998
3.4985760103935157
3.3910106703138654
3.3610261659595597
3.4165483805823973
3.527143567424744
3.657291788535427
3.784597019548268
3.8987844397665192
3.99578538223823
4.073891949273577
4.131586917748235
4.1659295879755724
4.170775966554352
4.134408647306666
4.03654912561295
3.8459130509790262
3.5227362001413938
3.0368629540051635
2.4123083844131687
1.7740568626589743
1.3071100373975952
1.1397188749217233
3.8290304653788216
3.5954230147910495
3.1858932981096766
2.886632925633615
2.674577761266963
2.517482325586946
2.3920761829064765
2.2840830119729665
2.1847820610115396
2.0884945949807734
1.9915146086257431
1.8917808653219808
1.788876739303967
1.6832493330246097
1.575962266653391
1.4690225224189846
1.3648485361874558
1.2656568585064425
1.1731389877087197
1.0883372521980952
1.0116815722900494
0.943136137923297
0.8823878632798766
0.8290160736666011
0.7826090454559804
0.742819938122963
0.7093725645409401
0.6820368084154457
0.6605966498665735
0.6448289384877977
0.6344983019123336
0.629359749109293
0.6291649631836973
0.6335932159015296
0.6422215264972262
0.6545874417648068
0.6701954313811226
0.6885129096787306
0.7089873651738674
0.7310637629469772
0.754202964177392
0.7779044738641281
0.8017345534014158
0.8253549947250581
0.8485503582258439
0.8712270051279312
0.8934032206490566
0.9152082583381504
0.9368538909512114
0.9585972204385731
0.9807160475211946
1.0035202984659115
1.0273466619195284
1.0525101271213078
1.0792923719818737
1.107952243752965
1.1387277626756966
1.1718412960199969
1.207509824025277
1.2459614556165375
1.2874596261979057
1.3323366514450434
1.3810384793020178
1.4341823154804525
1.4926279845385215
1.557561610850728
1.6305845812437907
1.7137883164534427
1.809770473286708
1.921499369974072
2.0518532188745535
2.202552319075403
2.3720328951024925
2.5518320316919025
2.7228672804376495
2.8560963075948953
2.9231220188818288
2.918591978098183
2.8779854935572775
2.8619091548325377
2.9125158367028767
3.0293168930509555
3.185485431621048
3.3540766889905016
3.5181515110636576
3.669046585570927
3.802794371047091
3.91778717820101
4.013443211751177
4.089293110181433
4.14408109303352
4.174586807302383
4.173902009044976
4.128949598324417
4.017400212323348
3.8055543747741583
3.4526570535131524
2.9339039457223666
2.293061330385514
1.6969954732500607
1.4399660786114574
3.5121478266235444
3.271770998229859
2.862820677795772
2.582808061498418
2.3949659555904286
2.260754960080004
2.153706253957876
2.058208741761149
1.9657584881820092
1.871981127470409
1.77476077611051
1.6735914716010527
1.568926574482352
1.4618258079229454
1.35432677581896
1.2490618934395679
1.1485792814430096
1.0549567288424164
0.9696113053678316
0.8932688984781547
0.8260625197935111
0.7677065865814302
0.7176850402873726
0.675404809378687
0.6402927206356943
0.6118380336255667
0.5895962558857804
0.5731733494607156
0.5622062090314374
0.5563481788179016
0.5552609680384447
0.5586092334088117
0.5660564938284418
0.577260014047045
0.5918284953929005
0.6093286704113167
0.6293285281608376
0.6513910858207677
0.6750652992711937
0.6998772352021406
0.7253282091401003
0.7509079314781395
0.7761265628933837
0.8005644814106996
0.8239153882560625
0.8460033048340597
0.8667894900126925
0.8863596217379985
0.9048893639333138
0.9226128421921186
0.9397991219202864
0.9567501409957091
0.9737868884703121
0.9912230738360661
1.0093627131907421
1.0285040471427984
1.0489412749639568
1.0709677018001733
1.094882310120181
1.1210003182103447
1.1496688240936344
1.1812890231257485
1.2163468274470124
1.2554537705076994
1.2993995748761156
1.3492157582484632
1.4062440629604602
1.4721901863019784
1.5491147295872576
1.6392567732727308
1.7444940096738466
1.8651060217374733
1.9973827277681264
2.1305786823037107
2.2460334918345484
2.323276637933312
2.355923956886653
2.3668460072969957
2.399600194945461
2.486398521766956
2.628477004036158
2.8066121557013433
2.9996205285250226
3.1923515658668826
3.375603404944508
3.5441380951433765
3.6951147913819544
3.8271428693279486
3.9396853299608052
4.032555264076201
4.105330301776808
4.156534775756672
4.182409803928912
4.175048275905105
4.119724848564747
3.9917359579391127
3.7548296347963332
3.3683232599840816
2.8249897978319134
2.2564361776416337
1.9956428568928941
3.1810154373602435
2.941921567930699
2.5453924947288042
2.290091785947273
2.1284955124283744
2.0170556664168595
1.926972557421059
1.8422565037973326
1.7555253922110108
1.6640652028656124
1.5675061728928184
1.4665837419229866
1.3625498443428294
1.2575094030234661
1.1542212745399505
1.055405405898608
0.963340029280909
0.8796592014361672
0.8052905723125082
0.7405111724447886
0.6850899025165819
0.6384695673200269
0.5999394573661426
0.5687647539454943
0.5442619249607198
0.5258278353390046
0.5129388277540338
0.5051359375852568
0.502007710441896
0.5031763259191021
0.5082885252992804
0.517010482595776
0.529026000279602
0.5440378032074265
0.5617595785937809
0.5819087312563415
0.6042150239612479
0.6284047867208278
0.6541603104929545
0.6810881524455116
0.708703850490112
0.7364440274204627
0.7637219845106257
0.7900066152928672
0.8148781444492063
0.8380666419294427
0.8594691268280591
0.8791250099580509
0.8971766926426801
0.9138348014003355
0.9293545503499331
0.9440209735915319
0.958127389842196
0.9719612535167941
0.9858043578393999
0.999934913151495
1.0146309056612588
1.0301760502798407
1.0468672819598481
1.065023782698721
1.0849992243717543
1.1071981398264041
1.132097654523122
1.160275906528947
1.1924477632061792
1.2295060287884603
1.2725598966181741
1.3229474224228748
1.3821675405709768