# vtk DataFile Version 3.0 
test.vtk
ASCII
DATASET UNSTRUCTURED_GRID
POINTS         81 double
-20.0 -20.0 0.0
-16.25 -20.0 0.0
-12.5 -20.0 0.0
-8.75 -20.0 0.0
-5.0 -20.0 0.0
-1.25 -20.0 0.0
2.5 -20.0 0.0
6.25 -20.0 0.0
10.0 -20.0 0.0
-20.0 -16.25 0.0
-16.25 -16.25 0.0
-12.5 -16.25 0.0
-8.75 -16.25 0.0
-5.0 -16.25 0.0
-1.25 -16.25 0.0
2.5 -16.25 0.0
6.25 -16.25 0.0
10.0 -16.25 0.0
-20.0 -12.5 0.0
-16.25 -12.5 0.0
-12.5 -12.5 0.0
-8.75 -12.5 0.0
-5.0 -12.5 0.0
-1.25 -12.5 0.0
2.5 -12.5 0.0
6.25 -12.5 0.0
10.0 -12.5 0.0
-20.0 -8.75 0.0
-16.25 -8.75 0.0
-12.5 -8.75 0.0
-8.75 -8.75 0.0
-5.0 -8.75 0.0
-1.25 -8.75 0.0
2.5 -8.75 0.0
6.25 -8.75 0.0
10.0 -8.75 0.0
-20.0 -5.0 0.0
-16.25 -5.0 0.0
-12.5 -5.0 0.0
-8.75 -5.0 0.0
-5.0 -5.0 0.0
-1.25 -5.0 0.0
2.5 -5.0 0.0
6.25 -5.0 0.0
10.0 -5.0 0.0
-20.0 -1.25 0.0
-16.25 -1.25 0.0
-12.5 -1.25 0.0
-8.75 -1.25 0.0
-5.0 -1.25 0.0
-1.25 -1.25 0.0
2.5 -1.25 0.0
6.25 -1.25 0.0
10.0 -1.25 0.0
-20.0 2.5 0.0
-16.25 2.5 0.0
-12.5 2.5 0.0
-8.75 2.5 0.0
-5.0 2.5 0.0
-1.25 2.5 0.0
2.5 2.5 0.0
6.25 2.5 0.0
10.0 2.5 0.0
-20.0 6.25 0.0
-16.25 6.25 0.0
-12.5 6.25 0.0
-8.75 6.25 0.0
-5.0 6.25 0.0
-1.25 6.25 0.0
2.5 6.25 0.0
6.25 6.25 0.0
10.0 6.25 0.0
-20.0 10.0 0.0
-16.25 10.0 0.0
-12.5 10.0 0.0
-8.75 10.0 0.0
-5.0 10.0 0.0
-1.25 10.0 0.0
2.5 10.0 0.0
6.25 10.0 0.0
10.0 10.0 0.0
CELLS 64 320
4 0 1 10 9
4 1 2 11 10
4 2 3 12 11
4 3 4 13 12
4 4 5 14 13
4 5 6 15 14
4 6 7 16 15
4 7 8 17 16
4 9 10 19 18
4 10 11 20 19
4 11 12 21 20
4 12 13 22 21
4 13 14 23 22
4 14 15 24 23
4 15 16 25 24
4 16 17 26 25
4 18 19 28 27
4 19 20 29 28
4 20 21 30 29
4 21 22 31 30
4 22 23 32 31
4 23 24 33 32
4 24 25 34 33
4 25 26 35 34
4 27 28 37 36
4 28 29 38 37
4 29 30 39 38
4 30 31 40 39
4 31 32 41 40
4 32 33 42 41
4 33 34 43 42
4 34 35 44 43
4 36 37 46 45
4 37 38 47 46
4 38 39 48 47
4 39 40 49 48
4 40 41 50 49
4 41 42 51 50
4 42 43 52 51
4 43 44 53 52
4 45 46 55 54
4 46 47 56 55
4 47 48 57 56
4 48 49 58 57
4 49 50 59 58
4 50 51 60 59
4 51 52 61 60
4 52 53 62 61
4 54 55 64 63
4 55 56 65 64
4 56 57 66 65
4 57 58 67 66
4 58 59 68 67
4 59 60 69 68
4 60 61 70 69
4 61 62 71 70
4 63 64 73 72
4 64 65 74 73
4 65 66 75 74
4 66 67 76 75
4 67 68 77 76
4 68 69 78 77
4 69 70 79 78
4 70 71 80 79
CELL_TYPES  64
9
9
9
9
9
9
9
9
9
9
9
9
9
9
9
9
9
9
9
9
9
9
9
9
9
9
9
9
9
9
9
9
9
9
9
9
9
9
9
9
9
9
9
9
9
9
9
9
9
9
9
9
9
9
9
9
9
9
9
9
9
9
9
9
POINT_DATA  81
FIELD  FlowField  4
Density    1 81  double
1.2695376000599687
1.2434774036547518
1.1512002013355764
1.0332006327724632
0.9867610227350967
1.0501675554938517
1.17114601524041
1.2499581914498272
1.2658554880596524
1.1199999999999997
1.1247606056355335
1.130357033204628
1.1274148171148342
1.1183596070924626
1.110656785367134
1.1106567853671339
1.1183596070924622
1.1236367790914792
1.1181589439998416
1.113836404536762
1.109513865073684
1.1138364045367632
1.1232403938975397
1.129972906952422
1.1284834613606982
1.1200000000000003
1.1146570473882103
1.1236367790914796
1.1274148171148344
1.130357033204629
1.1247606056355348
1.1152393943644658
1.1096429667953713
1.1125851828851658
1.1216403929075378
1.126917564906555
1.1146570473882107
1.111516538639303
1.1100270930475786
1.1167596061024603
1.1261635954632367
1.1304861349263144
1.1261635954632367
1.1167596061024603
1.1116781562047613
1.1269175649065546
1.1293432146328657
1.1293432146328657
1.1216403929075378
1.112585182885166
1.1096429667953716
1.115239394364466
1.1247606056355337
1.1295212112710677
1.111678156204762
1.1100270930475786
1.111516538639303
1.1200000000000003
1.1284834613606975
1.129972906952422
1.1232403938975402
1.1138364045367635
1.1095138650736858
1.1295212112710684
1.1303570332046293
1.1274148171148348
1.1183596070924624
1.110656785367134
1.1106567853671343
1.1183596070924624
1.1274148171148353
1.131192855138191
1.0416252152926069
1.1095138650736853
1.2216290014572078
1.2499581914498274
1.171146015240413
1.0501675554938539
0.9867610227350967
1.0332006327724632
1.084983195421618
X-velocity    1 81  double
1.261394047120748
1.2619888134884074
1.270499169051664
1.291632631813175
1.3199999999999985
1.348367368186823
1.369500830948335
1.3780111865115925
1.3786059528792525
1.2682717737544964
1.2748673291478392
1.2929720760314214
1.3179691593680567
1.3434841232838357
1.3630104482214471
1.371568765387412
1.3669766355589341
1.3613254414327205
1.3005152644040088
1.3139199989119925
1.3397955351697863
1.3606230518750233
1.3710913659423516
1.36853097368617
1.353594795578725
1.3300916763155586
1.3168527437917548
1.3488225457892202
1.3579852009052549
1.3702989712366536
1.3697861022224447
1.356577379556948
1.3340411330028021
1.3079242854024977
1.2848868414594552
1.2749747369984945
1.373367670292848
1.3707342828829587
1.35933445182699
1.3379040214359332
1.3119079225998047
1.2879753681228783
1.2722093505186658
1.2686303301813622
1.2702168850624957
1.353914913305466
1.34165652562322
1.3159414501451732
1.291261337291095
1.2739098129305642
1.2683116543422628
1.2758944366722877
1.294724489871487
1.3065017014546136
1.3065017014546139
1.2947244898714871
1.2758944366722882
1.268311654342263
1.273909812930564
1.2912613372910946
1.3159414501451727
1.34165652562322
1.3539149133054662
1.2702168850624962
1.2686303301813622
1.2722093505186656
1.2879753681228783
1.3119079225998045
1.3379040214359326
1.3593344518269896
1.3707342828829585
1.3733676702928477
1.2602889163996682
1.2655324148940683
1.282295679474034
1.3086738468893353
1.3379402737968658
1.3626317876177807
1.3764518551449128
1.3758762487937952
1.3717640631586667
Y-velocity    1 81  double
1.1930922772201997
1.190333512265327
1.1846704357099949
1.178827876929538
1.1730303621813445
1.1675006867059046
1.1624513528306606
1.1580764036247397
1.1560803803868185
1.174240116957217
1.1721423356278435
1.1681380640667125
1.164589640051247
1.1616334275263824
1.159383032081587
1.157924935151767
1.1573151705842257
1.1572273862428655
1.1572976679089328
1.1577338868542557
1.159025780040789
1.161123700737877
1.1639470270296575
1.1673872600700774
1.1713121936326985
1.1755709947218367
1.1777640154528706
1.178657028691119
1.1808912893751968
1.1852997541753771
1.1895045523947338
1.1933440959957755
1.1966708334711549
1.199356920165349
1.2012991312730743
1.2020730436641975
1.2022821580945289
1.2025449698989545
1.2026323483777508
1.2018499784007572
1.2002279260074316
1.1978285257615922
1.194743985269087
1.1910928416912134
1.189141954101966
1.1883143662717996
1.1861623312357854
1.1817812044467781
1.1773316269697922
1.1729845935719163
1.1689071583087864
1.1652560147309126
1.1621714742384075
1.1607871897345292
1.1603191487852262
1.1593830320815872
1.1579249351517673
1.157315170584226
1.157577171289334
1.1587008687269256
1.1606430798346512
1.163329166528845
1.1648469545064368
1.165528106865561
1.1673872600700772
1.1713121936326982
1.1755709947218365
1.18
1.1844290052781634
1.1886878063673016
1.1926127399299222
1.194471893134439
1.1805890107738188
1.1835091426828852
1.1892258697925229
1.1945880518999612
1.1993896233539578
1.203446062456288
1.2066014825271263
1.2087346225427302
1.2095327970426966
Pressure    1 81  double
1.3728305973304562
1.3414451763905082
1.345213257454057
1.4669654610036904
1.6544255135792811
1.8271044163324615
1.9108596956328294
1.869729670650102
1.8166619180907324
1.6506689312994185
1.6231212401253607
1.5732698032560721
1.543482730501846
1.5465495822605968
1.5811535562361234
1.6324368777548424
1.6783802251002211
1.69709404608466
1.6347926486060982
1.658846443763876
1.6934504177394019
1.6965172694981558
1.666730196743929
1.6168787598746373
1.568367477824487
1.5420254524283505
1.5366470179083058
1.5641054560231125
1.550634683483829
1.5414766442375276
1.5660338750164902
1.6137623324753165
1.6641690331508323
1.6956110466326466
1.6945882370136296
1.6850461546154676
1.700523217719808
1.699440865985763
1.6804539161864918
1.6355101018528333
1.5839067749829363
1.5478006567551899
1.5426944917198242
1.5707806942392823
1.5924310541678246
1.538579884795015
1.5538963704551019
1.5954324816962688
1.6475170533976122
1.6877867341459196
1.6989510866301936
1.6762165159383273
1.6293444768927976
1.601966626395364
1.6783209031004072
1.653284353133363
1.6014405895020372
1.557565608284205
1.5404978407306544
1.5575656082842055
1.6014405895020374
1.653284353133364
1.6783209031004096
1.6019666263953647
1.6293444768927978
1.6762165159383278
1.6989510866301945
1.6877867341459203
1.647517053397612
1.5954324816962686
1.5538963704551043
1.538579884795019
1.3105376608427384
1.349405039757667
1.4768877859464742
1.6658180708182064
1.8350756275611864
1.9119869926689965
1.8635290303186443
1.7105079486714085
1.6139135553372088

VECTORS Velocity double 
1.261394047120748 1.1930922772201997 0.0 
1.2619888134884074 1.190333512265327 0.0 
1.270499169051664 1.1846704357099949 0.0 
1.291632631813175 1.178827876929538 0.0 
1.3199999999999985 1.1730303621813445 0.0 
1.348367368186823 1.1675006867059046 0.0 
1.369500830948335 1.1624513528306606 0.0 
1.3780111865115925 1.1580764036247397 0.0 
1.3786059528792525 1.1560803803868185 0.0 
1.2682717737544964 1.174240116957217 0.0 
1.2748673291478392 1.1721423356278435 0.0 
1.2929720760314214 1.1681380640667125 0.0 
1.3179691593680567 1.164589640051247 0.0 
1.3434841232838357 1.1616334275263824 0.0 
1.3630104482214471 1.159383032081587 0.0 
1.371568765387412 1.157924935151767 0.0 
1.3669766355589341 1.1573151705842257 0.0 
1.3613254414327205 1.1572273862428655 0.0 
1.3005152644040088 1.1572976679089328 0.0 
1.3139199989119925 1.1577338868542557 0.0 
1.3397955351697863 1.159025780040789 0.0 
1.3606230518750233 1.161123700737877 0.0 
1.3710913659423516 1.1639470270296575 0.0 
1.36853097368617 1.1673872600700774 0.0 
1.353594795578725 1.1713121936326985 0.0 
1.3300916763155586 1.1755709947218367 0.0 
1.3168527437917548 1.1777640154528706 0.0 
1.3488225457892202 1.178657028691119 0.0 
1.3579852009052549 1.1808912893751968 0.0 
1.3702989712366536 1.1852997541753771 0.0 
1.3697861022224447 1.1895045523947338 0.0 
1.356577379556948 1.1933440959957755 0.0 
1.3340411330028021 1.1966708334711549 0.0 
1.3079242854024977 1.199356920165349 0.0 
1.2848868414594552 1.2012991312730743 0.0 
1.2749747369984945 1.2020730436641975 0.0 
1.373367670292848 1.2022821580945289 0.0 
1.3707342828829587 1.2025449698989545 0.0 
1.35933445182699 1.2026323483777508 0.0 
1.3379040214359332 1.2018499784007572 0.0 
1.3119079225998047 1.2002279260074316 0.0 
1.2879753681228783 1.1978285257615922 0.0 
1.2722093505186658 1.194743985269087 0.0 
1.2686303301813622 1.1910928416912134 0.0 
1.2702168850624957 1.189141954101966 0.0 
1.353914913305466 1.1883143662717996 0.0 
1.34165652562322 1.1861623312357854 0.0 
1.3159414501451732 1.1817812044467781 0.0 
1.291261337291095 1.1773316269697922 0.0 
1.2739098129305642 1.1729845935719163 0.0 
1.2683116543422628 1.1689071583087864 0.0 
1.2758944366722877 1.1652560147309126 0.0 
1.294724489871487 1.1621714742384075 0.0 
1.3065017014546136 1.1607871897345292 0.0 
1.3065017014546139 1.1603191487852262 0.0 
1.2947244898714871 1.1593830320815872 0.0 
1.2758944366722882 1.1579249351517673 0.0 
1.268311654342263 1.157315170584226 0.0 
1.273909812930564 1.157577171289334 0.0 
1.2912613372910946 1.1587008687269256 0.0 
1.3159414501451727 1.1606430798346512 0.0 
1.34165652562322 1.163329166528845 0.0 
1.3539149133054662 1.1648469545064368 0.0 
1.2702168850624962 1.165528106865561 0.0 
1.2686303301813622 1.1673872600700772 0.0 
1.2722093505186656 1.1713121936326982 0.0 
1.2879753681228783 1.1755709947218365 0.0 
1.3119079225998045 1.18 0.0 
1.3379040214359326 1.1844290052781634 0.0 
1.3593344518269896 1.1886878063673016 0.0 
1.3707342828829585 1.1926127399299222 0.0 
1.3733676702928477 1.194471893134439 0.0 
1.2602889163996682 1.1805890107738188 0.0 
1.2655324148940683 1.1835091426828852 0.0 
1.282295679474034 1.1892258697925229 0.0 
1.3086738468893353 1.1945880518999612 0.0 
1.3379402737968658 1.1993896233539578 0.0 
1.3626317876177807 1.203446062456288 0.0 
1.3764518551449128 1.2066014825271263 0.0 
1.3758762487937952 1.2087346225427302 0.0 
1.3717640631586667 1.2095327970426966 0.0 
