# vtk DataFile Version 3.0 
test.vtk
ASCII
DATASET UNSTRUCTURED_GRID
POINTS         81 double
-20.0 -20.0 0.0
-16.25 -20.0 0.0
-12.5 -20.0 0.0
-8.75 -20.0 0.0
-5.0 -20.0 0.0
-1.25 -20.0 0.0
2.5 -20.0 0.0
6.25 -20.0 0.0
10.0 -20.0 0.0
-20.0 -16.25 0.0
-16.25 -16.25 0.0
-12.5 -16.25 0.0
-8.75 -16.25 0.0
-5.0 -16.25 0.0
-1.25 -16.25 0.0
2.5 -16.25 0.0
6.25 -16.25 0.0
10.0 -16.25 0.0
-20.0 -12.5 0.0
-16.25 -12.5 0.0
-12.5 -12.5 0.0
-8.75 -12.5 0.0
-5.0 -12.5 0.0
-1.25 -12.5 0.0
2.5 -12.5 0.0
6.25 -12.5 0.0
10.0 -12.5 0.0
-20.0 -8.75 0.0
-16.25 -8.75 0.0
-12.5 -8.75 0.0
-8.75 -8.75 0.0
-5.0 -8.75 0.0
-1.25 -8.75 0.0
2.5 -8.75 0.0
6.25 -8.75 0.0
10.0 -8.75 0.0
-20.0 -5.0 0.0
-16.25 -5.0 0.0
-12.5 -5.0 0.0
-8.75 -5.0 0.0
-5.0 -5.0 0.0
-1.25 -5.0 0.0
2.5 -5.0 0.0
6.25 -5.0 0.0
10.0 -5.0 0.0
-20.0 -1.25 0.0
-16.25 -1.25 0.0
-12.5 -1.25 0.0
-8.75 -1.25 0.0
-5.0 -1.25 0.0
-1.25 -1.25 0.0
2.5 -1.25 0.0
6.25 -1.25 0.0
10.0 -1.25 0.0
-20.0 2.5 0.0
-16.25 2.5 0.0
-12.5 2.5 0.0
-8.75 2.5 0.0
-5.0 2.5 0.0
-1.25 2.5 0.0
2.5 2.5 0.0
6.25 2.5 0.0
10.0 2.5 0.0
-20.0 6.25 0.0
-16.25 6.25 0.0
-12.5 6.25 0.0
-8.75 6.25 0.0
-5.0 6.25 0.0
-1.25 6.25 0.0
2.5 6.25 0.0
6.25 6.25 0.0
10.0 6.25 0.0
-20.0 10.0 0.0
-16.25 10.0 0.0
-12.5 10.0 0.0
-8.75 10.0 0.0
-5.0 10.0 0.0
-1.25 10.0 0.0
2.5 10.0 0.0
6.25 10.0 0.0
10.0 10.0 0.0
CELLS 64 320
4 0 1 10 9
4 1 2 11 10
4 2 3 12 11
4 3 4 13 12
4 4 5 14 13
4 5 6 15 14
4 6 7 16 15
4 7 8 17 16
4 9 10 19 18
4 10 11 20 19
4 11 12 21 20
4 12 13 22 21
4 13 14 23 22
4 14 15 24 23
4 15 16 25 24
4 16 17 26 25
4 18 19 28 27
4 19 20 29 28
4 20 21 30 29
4 21 22 31 30
4 22 23 32 31
4 23 24 33 32
4 24 25 34 33
4 25 26 35 34
4 27 28 37 36
4 28 29 38 37
4 29 30 39 38
4 30 31 40 39
4 31 32 41 40
4 32 33 42 41
4 33 34 43 42
4 34 35 44 43
4 36 37 46 45
4 37 38 47 46
4 38 39 48 47
4 39 40 49 48
4 40 41 50 49
4 41 42 51 50
4 42 43 52 51
4 43 44 53 52
4 45 46 55 54
4 46 47 56 55
4 47 48 57 56
4 48 49 58 57
4 49 50 59 58
4 50 51 60 59
4 51 52 61 60
4 52 53 62 61
4 54 55 64 63
4 55 56 65 64
4 56 57 66 65
4 57 58 67 66
4 58 59 68 67
4 59 60 69 68
4 60 61 70 69
4 61 62 71 70
4 63 64 73 72
4 64 65 74 73
4 65 66 75 74
4 66 67 76 75
4 67 68 77 76
4 68 69 78 77
4 69 70 79 78
4 70 71 80 79
CELL_TYPES  64
9
9
9
9
9
9
9
9
9
9
9
9
9
9
9
9
9
9
9
9
9
9
9
9
9
9
9
9
9
9
9
9
9
9
9
9
9
9
9
9
9
9
9
9
9
9
9
9
9
9
9
9
9
9
9
9
9
9
9
9
9
9
9
9
POINT_DATA  81
FIELD  FlowField  4
Density    1 81  double
1.2695376000599687
2.4869548073095036
2.302400402671153
2.0664012655449264
1.9735220454701934
2.1003351109877033
2.34229203048082
2.4999163828996545
1.2658554880596524
2.2399999999999993
4.499042422542134
4.521428132818512
4.509659268459337
4.4734384283698505
4.442627141468536
4.442627141468535
4.473438428369849
2.2472735581829584
2.2363178879996832
4.455345618147048
4.438055460294736
4.455345618147053
4.492961575590159
4.519891627809688
4.513933845442793
4.480000000000001
2.2293140947764205
2.2472735581829593
4.5096592684593375
4.521428132818516
4.499042422542139
4.460957577457863
4.438571867181485
4.450340731540663
4.486561571630151
2.25383512981311
2.2293140947764214
4.446066154557212
4.4401083721903145
4.467038424409841
4.504654381852947
4.521944539705258
4.504654381852947
4.467038424409841
2.2233563124095226
2.253835129813109
4.517372858531463
4.517372858531463
4.486561571630151
4.450340731540664
4.438571867181486
4.460957577457864
4.499042422542135
2.2590424225421355
2.223356312409524
4.4401083721903145
4.446066154557212
4.480000000000001
4.51393384544279
4.519891627809688
4.492961575590161
4.455345618147054
2.2190277301473715
2.259042422542137
4.521428132818517
4.509659268459339
4.47343842836985
4.442627141468536
4.442627141468537
4.47343842836985
1.1274148171148353
1.131192855138191
1.0416252152926069
2.2190277301473706
2.4432580029144155
2.499916382899655
2.342292030480826
2.1003351109877078
1.9735220454701934
1.0332006327724632
1.084983195421618
X-velocity    1 81  double
1.261394047120748
2.523977626976815
2.540998338103328
2.58326526362635
2.639999999999997
2.696734736373646
2.73900166189667
2.756022373023185
1.3786059528792525
2.536543547508993
5.099469316591357
5.171888304125686
5.271876637472227
5.373936493135343
5.4520417928857885
5.486275061549648
5.4679065422357365
2.722650882865441
2.6010305288080176
5.25567999564797
5.359182140679145
5.442492207500093
5.484365463769406
5.47412389474468
5.4143791823149
5.320366705262234
2.6337054875835095
2.6976450915784405
5.4319408036210195
5.481195884946614
5.479144408889779
5.426309518227792
5.3361645320112085
5.231697141609991
5.139547365837821
2.549949473996989
2.746735340585696
5.482937131531835
5.43733780730796
5.351616085743733
5.247631690399219
5.151901472491513
5.088837402074663
5.074521320725449
2.5404337701249915
2.707829826610932
5.36662610249288
5.263765800580693
5.16504534916438
5.095639251722257
5.073246617369051
5.103577746689151
5.178897959485948
2.6130034029092273
2.6130034029092277
5.1788979594859486
5.103577746689153
5.073246617369052
5.095639251722256
5.165045349164378
5.263765800580691
5.36662610249288
2.7078298266109324
2.5404337701249924
5.074521320725449
5.088837402074662
5.151901472491513
5.247631690399218
5.35161608574373
5.437337807307959
1.3707342828829585
1.3733676702928477
1.2602889163996682
2.5310648297881366
2.564591358948068
2.6173476937786706
2.6758805475937315
2.7252635752355614
2.7529037102898255
1.3758762487937952
1.3717640631586667
Y-velocity    1 81  double
1.1930922772201997
2.380667024530654
2.3693408714199897
2.357655753859076
2.346060724362689
2.335001373411809
2.324902705661321
2.3161528072494795
1.1560803803868185
2.348480233914434
4.688569342511374
4.67255225626685
4.658358560204988
4.64653371010553
4.637532128326348
4.631699740607068
4.629260682336903
2.314454772485731
2.3145953358178657
4.630935547417023
4.636103120163156
4.644494802951508
4.65578810811863
4.66954904028031
4.685248774530794
4.702283978887347
2.355528030905741
2.357314057382238
4.723565157500787
4.741199016701509
4.758018209578935
4.773376383983102
4.7866833338846195
4.797427680661396
4.805196525092297
2.404146087328395
2.4045643161890577
4.810179879595818
4.810529393511003
4.807399913603029
4.800911704029726
4.791314103046369
4.778975941076348
4.764371366764854
2.378283908203932
2.3766287325435993
4.744649324943142
4.727124817787113
4.709326507879169
4.691938374287665
4.675628633235146
4.66102405892365
4.64868589695363
2.3215743794690584
2.3206382975704525
4.637532128326349
4.631699740607069
4.629260682336904
4.630308685157336
4.634803474907702
4.642572319338605
4.65331666611538
2.3296939090128737
2.331056213731122
4.669549040280309
4.685248774530793
4.702283978887346
4.72
4.737716021112654
4.754751225469207
1.1926127399299222
1.194471893134439
1.1805890107738188
2.3670182853657704
2.3784517395850457
2.3891761037999224
2.3987792467079156
2.406892124912576
2.4132029650542526
1.2087346225427302
1.2095327970426966
Pressure    1 81  double
1.3728305973304562
2.6828903527810164
2.690426514908114
2.933930922007381
3.3088510271585623
3.654208832664923
3.821719391265659
3.739459341300204
1.8166619180907324
3.301337862598837
6.492484960501443
6.2930792130242885
6.173930922007384
6.186198329042387
6.324614224944494
6.5297475110193695
6.7135209004008845
3.39418809216932
3.2695852972121964
6.635385775055504
6.773801670957607
6.786069077992623
6.666920786975716
6.467515039498549
6.273469911297948
6.168101809713402
3.0732940358166116
3.128210912046225
6.202538733935316
6.1659065769501105
6.264135500065961
6.455049329901266
6.656676132603329
6.7824441865305864
6.778352948054518
3.370092309230935
3.401046435439616
6.797763463943052
6.721815664745967
6.542040407411333
6.335627099931745
6.191202627020759
6.170777966879297
6.283122776957129
3.184862108335649
3.07715976959003
6.2155854818204075
6.381729926785075
6.590068213590449
6.7511469365836785
6.795804346520774
6.704866063753309
6.51737790757119
3.203933252790728
3.3566418062008143
6.613137412533452
6.405762358008149
6.23026243313682
6.161991362922618
6.230262433136822
6.4057623580081495
6.613137412533456
3.356641806200819
3.2039332527907294
6.517377907571191
6.704866063753311
6.795804346520778
6.751146936583681
6.590068213590448
6.3817299267850744
1.5538963704551043
1.538579884795019
1.3105376608427384
2.698810079515334
2.9537755718929484
3.331636141636413
3.6701512551223727
3.823973985337993
3.7270580606372885
1.7105079486714085
1.6139135553372088

VECTORS Velocity double 
1.261394047120748 1.1930922772201997 0.0 
2.523977626976815 2.380667024530654 0.0 
2.540998338103328 2.3693408714199897 0.0 
2.58326526362635 2.357655753859076 0.0 
2.639999999999997 2.346060724362689 0.0 
2.696734736373646 2.335001373411809 0.0 
2.73900166189667 2.324902705661321 0.0 
2.756022373023185 2.3161528072494795 0.0 
1.3786059528792525 1.1560803803868185 0.0 
2.536543547508993 2.348480233914434 0.0 
5.099469316591357 4.688569342511374 0.0 
5.171888304125686 4.67255225626685 0.0 
5.271876637472227 4.658358560204988 0.0 
5.373936493135343 4.64653371010553 0.0 
5.4520417928857885 4.637532128326348 0.0 
5.486275061549648 4.631699740607068 0.0 
5.4679065422357365 4.629260682336903 0.0 
2.722650882865441 2.314454772485731 0.0 
2.6010305288080176 2.3145953358178657 0.0 
5.25567999564797 4.630935547417023 0.0 
5.359182140679145 4.636103120163156 0.0 
5.442492207500093 4.644494802951508 0.0 
5.484365463769406 4.65578810811863 0.0 
5.47412389474468 4.66954904028031 0.0 
5.4143791823149 4.685248774530794 0.0 
5.320366705262234 4.702283978887347 0.0 
2.6337054875835095 2.355528030905741 0.0 
2.6976450915784405 2.357314057382238 0.0 
5.4319408036210195 4.723565157500787 0.0 
5.481195884946614 4.741199016701509 0.0 
5.479144408889779 4.758018209578935 0.0 
5.426309518227792 4.773376383983102 0.0 
5.3361645320112085 4.7866833338846195 0.0 
5.231697141609991 4.797427680661396 0.0 
5.139547365837821 4.805196525092297 0.0 
2.549949473996989 2.404146087328395 0.0 
2.746735340585696 2.4045643161890577 0.0 
5.482937131531835 4.810179879595818 0.0 
5.43733780730796 4.810529393511003 0.0 
5.351616085743733 4.807399913603029 0.0 
5.247631690399219 4.800911704029726 0.0 
5.151901472491513 4.791314103046369 0.0 
5.088837402074663 4.778975941076348 0.0 
5.074521320725449 4.764371366764854 0.0 
2.5404337701249915 2.378283908203932 0.0 
2.707829826610932 2.3766287325435993 0.0 
5.36662610249288 4.744649324943142 0.0 
5.263765800580693 4.727124817787113 0.0 
5.16504534916438 4.709326507879169 0.0 
5.095639251722257 4.691938374287665 0.0 
5.073246617369051 4.675628633235146 0.0 
5.103577746689151 4.66102405892365 0.0 
5.178897959485948 4.64868589695363 0.0 
2.6130034029092273 2.3215743794690584 0.0 
2.6130034029092277 2.3206382975704525 0.0 
5.1788979594859486 4.637532128326349 0.0 
5.103577746689153 4.631699740607069 0.0 
5.073246617369052 4.629260682336904 0.0 
5.095639251722256 4.630308685157336 0.0 
5.165045349164378 4.634803474907702 0.0 
5.263765800580691 4.642572319338605 0.0 
5.36662610249288 4.65331666611538 0.0 
2.7078298266109324 2.3296939090128737 0.0 
2.5404337701249924 2.331056213731122 0.0 
5.074521320725449 4.669549040280309 0.0 
5.088837402074662 4.685248774530793 0.0 
5.151901472491513 4.702283978887346 0.0 
5.247631690399218 4.72 0.0 
5.35161608574373 4.737716021112654 0.0 
5.437337807307959 4.754751225469207 0.0 
1.3707342828829585 1.1926127399299222 0.0 
1.3733676702928477 1.194471893134439 0.0 
1.2602889163996682 1.1805890107738188 0.0 
2.5310648297881366 2.3670182853657704 0.0 
2.564591358948068 2.3784517395850457 0.0 
2.6173476937786706 2.3891761037999224 0.0 
2.6758805475937315 2.3987792467079156 0.0 
2.7252635752355614 2.406892124912576 0.0 
2.7529037102898255 2.4132029650542526 0.0 
1.3758762487937952 1.2087346225427302 0.0 
1.3717640631586667 1.2095327970426966 0.0 
