# vtk DataFile Version 3.0 
vortex.vtk
ASCII
DATASET UNSTRUCTURED_GRID
POINTS         16641 double
-20.0 -20.0 0.0
-19.765625 -20.0 0.0
-19.53125 -20.0 0.0
-19.296875 -20.0 0.0
-19.0625 -20.0 0.0
-18.828125 -20.0 0.0
-18.59375 -20.0 0.0
-18.359375 -20.0 0.0
-18.125 -20.0 0.0
-17.890625 -20.0 0.0
-17.65625 -20.0 0.0
-17.421875 -20.0 0.0
-17.1875 -20.0 0.0
-16.953125 -20.0 0.0
-16.71875 -20.0 0.0
-16.484375 -20.0 0.0
-16.25 -20.0 0.0
-16.015625 -20.0 0.0
-15.78125 -20.0 0.0
-15.546875 -20.0 0.0
-15.3125 -20.0 0.0
-15.078125 -20.0 0.0
-14.84375 -20.0 0.0
-14.609375 -20.0 0.0
-14.375 -20.0 0.0
-14.140625 -20.0 0.0
-13.90625 -20.0 0.0
-13.671875 -20.0 0.0
-13.4375 -20.0 0.0
-13.203125 -20.0 0.0
-12.96875 -20.0 0.0
-12.734375 -20.0 0.0
-12.5 -20.0 0.0
-12.265625 -20.0 0.0
-12.03125 -20.0 0.0
-11.796875 -20.0 0.0
-11.5625 -20.0 0.0
-11.328125 -20.0 0.0
-11.09375 -20.0 0.0
-10.859375 -20.0 0.0
-10.625 -20.0 0.0
-10.390625 -20.0 0.0
-10.15625 -20.0 0.0
-9.921875 -20.0 0.0
-9.6875 -20.0 0.0
-9.453125 -20.0 0.0
-9.21875 -20.0 0.0
-8.984375 -20.0 0.0
-8.75 -20.0 0.0
-8.515625 -20.0 0.0
-8.28125 -20.0 0.0
-8.046875 -20.0 0.0
-7.8125 -20.0 0.0
-7.578125 -20.0 0.0
-7.34375 -20.0 0.0
-7.109375 -20.0 0.0
-6.875 -20.0 0.0
-6.640625 -20.0 0.0
-6.40625 -20.0 0.0
-6.171875 -20.0 0.0
-5.9375 -20.0 0.0
-5.703125 -20.0 0.0
-5.46875 -20.0 0.0
-5.234375 -20.0 0.0
-5.0 -20.0 0.0
-4.765625 -20.0 0.0
-4.53125 -20.0 0.0
-4.296875 -20.0 0.0
-4.0625 -20.0 0.0
-3.828125 -20.0 0.0
-3.59375 -20.0 0.0
-3.359375 -20.0 0.0
-3.125 -20.0 0.0
-2.890625 -20.0 0.0
-2.65625 -20.0 0.0
-2.421875 -20.0 0.0
-2.1875 -20.0 0.0
-1.953125 -20.0 0.0
-1.71875 -20.0 0.0
-1.484375 -20.0 0.0
-1.25 -20.0 0.0
-1.015625 -20.0 0.0
-0.78125 -20.0 0.0
-0.546875 -20.0 0.0
-0.3125 -20.0 0.0
-0.078125 -20.0 0.0
0.15625 -20.0 0.0
0.390625 -20.0 0.0
0.625 -20.0 0.0
0.859375 -20.0 0.0
1.09375 -20.0 0.0
1.328125 -20.0 0.0
1.5625 -20.0 0.0
1.796875 -20.0 0.0
2.03125 -20.0 0.0
2.265625 -20.0 0.0
2.5 -20.0 0.0
2.734375 -20.0 0.0
2.96875 -20.0 0.0
3.203125 -20.0 0.0
3.4375 -20.0 0.0
3.671875 -20.0 0.0
3.90625 -20.0 0.0
4.140625 -20.0 0.0
4.375 -20.0 0.0
4.609375 -20.0 0.0
4.84375 -20.0 0.0
5.078125 -20.0 0.0
5.3125 -20.0 0.0
5.546875 -20.0 0.0
5.78125 -20.0 0.0
6.015625 -20.0 0.0
6.25 -20.0 0.0
6.484375 -20.0 0.0
6.71875 -20.0 0.0
6.953125 -20.0 0.0
7.1875 -20.0 0.0
7.421875 -20.0 0.0
7.65625 -20.0 0.0
7.890625 -20.0 0.0
8.125 -20.0 0.0
8.359375 -20.0 0.0
8.59375 -20.0 0.0
8.828125 -20.0 0.0
9.0625 -20.0 0.0
9.296875 -20.0 0.0
9.53125 -20.0 0.0
9.765625 -20.0 0.0
10.0 -20.0 0.0
-20.0 -19.765625 0.0
-19.765625 -19.765625 0.0
-19.53125 -19.765625 0.0
-19.296875 -19.765625 0.0
-19.0625 -19.765625 0.0
-18.828125 -19.765625 0.0
-18.59375 -19.765625 0.0
-18.359375 -19.765625 0.0
-18.125 -19.765625 0.0
-17.890625 -19.765625 0.0
-17.65625 -19.765625 0.0
-17.421875 -19.765625 0.0
-17.1875 -19.765625 0.0
-16.953125 -19.765625 0.0
-16.71875 -19.765625 0.0
-16.484375 -19.765625 0.0
-16.25 -19.765625 0.0
-16.015625 -19.765625 0.0
-15.78125 -19.765625 0.0
-15.546875 -19.765625 0.0
-15.3125 -19.765625 0.0
-15.078125 -19.765625 0.0
-14.84375 -19.765625 0.0
-14.609375 -19.765625 0.0
-14.375 -19.765625 0.0
-14.140625 -19.765625 0.0
-13.90625 -19.765625 0.0
-13.671875 -19.765625 0.0
-13.4375 -19.765625 0.0
-13.203125 -19.765625 0.0
-12.96875 -19.765625 0.0
-12.734375 -19.765625 0.0
-12.5 -19.765625 0.0
-12.265625 -19.765625 0.0
-12.03125 -19.765625 0.0
-11.796875 -19.765625 0.0
-11.5625 -19.765625 0.0
-11.328125 -19.765625 0.0
-11.09375 -19.765625 0.0
-10.859375 -19.765625 0.0
-10.625 -19.765625 0.0
-10.390625 -19.765625 0.0
-10.15625 -19.765625 0.0
-9.921875 -19.765625 0.0
-9.6875 -19.765625 0.0
-9.453125 -19.765625 0.0
-9.21875 -19.765625 0.0
-8.984375 -19.765625 0.0
-8.75 -19.765625 0.0
-8.515625 -19.765625 0.0
-8.28125 -19.765625 0.0
-8.046875 -19.765625 0.0
-7.8125 -19.765625 0.0
-7.578125 -19.765625 0.0
-7.34375 -19.765625 0.0
-7.109375 -19.765625 0.0
-6.875 -19.765625 0.0
-6.640625 -19.765625 0.0
-6.40625 -19.765625 0.0
-6.171875 -19.765625 0.0
-5.9375 -19.765625 0.0
-5.703125 -19.765625 0.0
-5.46875 -19.765625 0.0
-5.234375 -19.765625 0.0
-5.0 -19.765625 0.0
-4.765625 -19.765625 0.0
-4.53125 -19.765625 0.0
-4.296875 -19.765625 0.0
-4.0625 -19.765625 0.0
-3.828125 -19.765625 0.0
-3.59375 -19.765625 0.0
-3.359375 -19.765625 0.0
-3.125 -19.765625 0.0
-2.890625 -19.765625 0.0
-2.65625 -19.765625 0.0
-2.421875 -19.765625 0.0
-2.1875 -19.765625 0.0
-1.953125 -19.765625 0.0
-1.71875 -19.765625 0.0
-1.484375 -19.765625 0.0
-1.25 -19.765625 0.0
-1.015625 -19.765625 0.0
-0.78125 -19.765625 0.0
-0.546875 -19.765625 0.0
-0.3125 -19.765625 0.0
-0.078125 -19.765625 0.0
0.15625 -19.765625 0.0
0.390625 -19.765625 0.0
0.625 -19.765625 0.0
0.859375 -19.765625 0.0
1.09375 -19.765625 0.0
1.328125 -19.765625 0.0
1.5625 -19.765625 0.0
1.796875 -19.765625 0.0
2.03125 -19.765625 0.0
2.265625 -19.765625 0.0
2.5 -19.765625 0.0
2.734375 -19.765625 0.0
2.96875 -19.765625 0.0
3.203125 -19.765625 0.0
3.4375 -19.765625 0.0
3.671875 -19.765625 0.0
3.90625 -19.765625 0.0
4.140625 -19.765625 0.0
4.375 -19.765625 0.0
4.609375 -19.765625 0.0
4.84375 -19.765625 0.0
5.078125 -19.765625 0.0
5.3125 -19.765625 0.0
5.546875 -19.765625 0.0
5.78125 -19.765625 0.0
6.015625 -19.765625 0.0
6.25 -19.765625 0.0
6.484375 -19.765625 0.0
6.71875 -19.765625 0.0
6.953125 -19.765625 0.0
7.1875 -19.765625 0.0
7.421875 -19.765625 0.0
7.65625 -19.765625 0.0
7.890625 -19.765625 0.0
8.125 -19.765625 0.0
8.359375 -19.765625 0.0
8.59375 -19.765625 0.0
8.828125 -19.765625 0.0
9.0625 -19.765625 0.0
9.296875 -19.765625 0.0
9.53125 -19.765625 0.0
9.765625 -19.765625 0.0
10.0 -19.765625 0.0
-20.0 -19.53125 0.0
-19.765625 -19.53125 0.0
-19.53125 -19.53125 0.0
-19.296875 -19.53125 0.0
-19.0625 -19.53125 0.0
-18.828125 -19.53125 0.0
-18.59375 -19.53125 0.0
-18.359375 -19.53125 0.0
-18.125 -19.53125 0.0
-17.890625 -19.53125 0.0
-17.65625 -19.53125 0.0
-17.421875 -19.53125 0.0
-17.1875 -19.53125 0.0
-16.953125 -19.53125 0.0
-16.71875 -19.53125 0.0
-16.484375 -19.53125 0.0
-16.25 -19.53125 0.0
-16.015625 -19.53125 0.0
-15.78125 -19.53125 0.0
-15.546875 -19.53125 0.0
-15.3125 -19.53125 0.0
-15.078125 -19.53125 0.0
-14.84375 -19.53125 0.0
-14.609375 -19.53125 0.0
-14.375 -19.53125 0.0
-14.140625 -19.53125 0.0
-13.90625 -19.53125 0.0
-13.671875 -19.53125 0.0
-13.4375 -19.53125 0.0
-13.203125 -19.53125 0.0
-12.96875 -19.53125 0.0
-12.734375 -19.53125 0.0
-12.5 -19.53125 0.0
-12.265625 -19.53125 0.0
-12.03125 -19.53125 0.0
-11.796875 -19.53125 0.0
-11.5625 -19.53125 0.0
-11.328125 -19.53125 0.0
-11.09375 -19.53125 0.0
-10.859375 -19.53125 0.0
-10.625 -19.53125 0.0
-10.390625 -19.53125 0.0
-10.15625 -19.53125 0.0
-9.921875 -19.53125 0.0
-9.6875 -19.53125 0.0
-9.453125 -19.53125 0.0
-9.21875 -19.53125 0.0
-8.984375 -19.53125 0.0
-8.75 -19.53125 0.0
-8.515625 -19.53125 0.0
-8.28125 -19.53125 0.0
-8.046875 -19.53125 0.0
-7.8125 -19.53125 0.0
-7.578125 -19.53125 0.0
-7.34375 -19.53125 0.0
-7.109375 -19.53125 0.0
-6.875 -19.53125 0.0
-6.640625 -19.53125 0.0
-6.40625 -19.53125 0.0
-6.171875 -19.53125 0.0
-5.9375 -19.53125 0.0
-5.703125 -19.53125 0.0
-5.46875 -19.53125 0.0
-5.234375 -19.53125 0.0
-5.0 -19.53125 0.0
-4.765625 -19.53125 0.0
-4.53125 -19.53125 0.0
-4.296875 -19.53125 0.0
-4.0625 -19.53125 0.0
-3.828125 -19.53125 0.0
-3.59375 -19.53125 0.0
-3.359375 -19.53125 0.0
-3.125 -19.53125 0.0
-2.890625 -19.53125 0.0
-2.65625 -19.53125 0.0
-2.421875 -19.53125 0.0
-2.1875 -19.53125 0.0
-1.953125 -19.53125 0.0
-1.71875 -19.53125 0.0
-1.484375 -19.53125 0.0
-1.25 -19.53125 0.0
-1.015625 -19.53125 0.0
-0.78125 -19.53125 0.0
-0.546875 -19.53125 0.0
-0.3125 -19.53125 0.0
-0.078125 -19.53125 0.0
0.15625 -19.53125 0.0
0.390625 -19.53125 0.0
0.625 -19.53125 0.0
0.859375 -19.53125 0.0
1.09375 -19.53125 0.0
1.328125 -19.53125 0.0
1.5625 -19.53125 0.0
1.796875 -19.53125 0.0
2.03125 -19.53125 0.0
2.265625 -19.53125 0.0
2.5 -19.53125 0.0
2.734375 -19.53125 0.0
2.96875 -19.53125 0.0
3.203125 -19.53125 0.0
3.4375 -19.53125 0.0
3.671875 -19.53125 0.0
3.90625 -19.53125 0.0
4.140625 -19.53125 0.0
4.375 -19.53125 0.0
4.609375 -19.53125 0.0
4.84375 -19.53125 0.0
5.078125 -19.53125 0.0
5.3125 -19.53125 0.0
5.546875 -19.53125 0.0
5.78125 -19.53125 0.0
6.015625 -19.53125 0.0
6.25 -19.53125 0.0
6.484375 -19.53125 0.0
6.71875 -19.53125 0.0
6.953125 -19.53125 0.0
7.1875 -19.53125 0.0
7.421875 -19.53125 0.0
7.65625 -19.53125 0.0
7.890625 -19.53125 0.0
8.125 -19.53125 0.0
8.359375 -19.53125 0.0
8.59375 -19.53125 0.0
8.828125 -19.53125 0.0
9.0625 -19.53125 0.0
9.296875 -19.53125 0.0
9.53125 -19.53125 0.0
9.765625 -19.53125 0.0
10.0 -19.53125 0.0
-20.0 -19.296875 0.0
-19.765625 -19.296875 0.0
-19.53125 -19.296875 0.0
-19.296875 -19.296875 0.0
-19.0625 -19.296875 0.0
-18.828125 -19.296875 0.0
-18.59375 -19.296875 0.0
-18.359375 -19.296875 0.0
-18.125 -19.296875 0.0
-17.890625 -19.296875 0.0
-17.65625 -19.296875 0.0
-17.421875 -19.296875 0.0
-17.1875 -19.296875 0.0
-16.953125 -19.296875 0.0
-16.71875 -19.296875 0.0
-16.484375 -19.296875 0.0
-16.25 -19.296875 0.0
-16.015625 -19.296875 0.0
-15.78125 -19.296875 0.0
-15.546875 -19.296875 0.0
-15.3125 -19.296875 0.0
-15.078125 -19.296875 0.0
-14.84375 -19.296875 0.0
-14.609375 -19.296875 0.0
-14.375 -19.296875 0.0
-14.140625 -19.296875 0.0
-13.90625 -19.296875 0.0
-13.671875 -19.296875 0.0
-13.4375 -19.296875 0.0
-13.203125 -19.296875 0.0
-12.96875 -19.296875 0.0
-12.734375 -19.296875 0.0
-12.5 -19.296875 0.0
-12.265625 -19.296875 0.0
-12.03125 -19.296875 0.0
-11.796875 -19.296875 0.0
-11.5625 -19.296875 0.0
-11.328125 -19.296875 0.0
-11.09375 -19.296875 0.0
-10.859375 -19.296875 0.0
-10.625 -19.296875 0.0
-10.390625 -19.296875 0.0
-10.15625 -19.296875 0.0
-9.921875 -19.296875 0.0
-9.6875 -19.296875 0.0
-9.453125 -19.296875 0.0
-9.21875 -19.296875 0.0
-8.984375 -19.296875 0.0
-8.75 -19.296875 0.0
-8.515625 -19.296875 0.0
-8.28125 -19.296875 0.0
-8.046875 -19.296875 0.0
-7.8125 -19.296875 0.0
-7.578125 -19.296875 0.0
-7.34375 -19.296875 0.0
[...]
POINT_DATA  16641
FIELD  FlowField  4
Density    1 16641  double
2.3597321548544476
3.2332758199848826
3.0956001611362294
3.0885037059761196
3.0912101306671387
3.091336333530497
3.0912902987125808
3.0912904287845233
3.091290901986583
3.0912908771305214
3.0912908750019352
3.0912908752669273
3.0912908752639794
3.0912908752629447
3.09129087526301
3.0912908752630095
3.0912908752630095
3.0912908752630095
3.0912908752630095
3.0912908752630095
3.0912908752630095
3.0912908752630095
3.0912908752630095
3.0912908752630095
3.0912908752630095
3.0912908752630095
3.0912908752630095
3.0912908752630095
3.0912908752630095
3.0912908752630095
3.0912908752630095
3.0912908752630095
3.0912908752630095
3.0912908752630095
3.0912908752630095
3.0912908752630095
3.0912908752630095
3.0912908752630095
3.0912908752630095
3.0912908752630095
3.0912908752630095
3.0912908752630095
3.0912908752630095
3.0912908752630095
3.0912908752630095
3.0912908752630095
3.0912908752630095
3.0912908752630095
3.0912908752630095
3.0912908752630095
3.0912908752630095
3.0912908752630095
3.0912908752630095
3.0912908752630095
3.0912908752630095
3.0912908752630095
3.0912908752630095
3.0912908752630095
3.0912908752630095
3.0912908752630095
3.0912908752630095
3.0912908752630095
3.0912908752630095
3.0912908752630095
3.0912908752630095
3.0912908752630095
3.0912908752630095
3.0912908752630095
3.0912908752630095
3.0912908752630095
3.0912908752630095
3.0912908752630095
3.0912908752630095
3.0912908752630095
3.0912908752630095
3.0912908752630095
3.0912908752630095
3.0912908752630095
3.0912908752630095
3.0912908752630095
3.0912908752630095
3.0912908752630095
3.0912908752630095
3.0912908752630095
3.0912908752630095
3.0912908752630095
3.0912908752630095
3.0912908752630095
3.0912908752630095
3.0912908752630095
3.0912908752630095
3.0912908752630095
3.0912908752630095
3.0912908752630095
3.0912908752630095
3.0912908752630095
3.0912908752630095
3.0912908752630095
3.0912908752630095
3.0912908752630095
3.0912908752630095
3.0912908752630095
3.0912908752630095
3.0912908752630095
3.0912908752630095
3.0912908752630095
3.0912908752630095
3.0912908752630095
3.0912908752630095
3.0912908752630095
3.0912908752630095
3.0912908752630095
3.0912908752630095
3.0912908752630095
3.0912908752630095
3.0912908752630095
3.0912908752630095
3.0912908752630095
3.091290875263014
3.091290875262737
3.0912908752783412
3.0912908745282976
3.0912909050382256
3.091289873009911
3.091318755170793
3.090660309209392
3.1020273707382016
2.977258548005615
0.9136328367621904
3.5673567396701245
6.612725248843791
6.154914080928006
6.09834247272624
6.107124448805674
6.108762472369543
6.108616149633638
6.108597653584207
6.108599982446154
6.10860004970884
6.108600028492439
6.108600029127686
6.108600029212864
6.108600029205446
6.108600029205477
6.108600029205502
6.1086000292055
6.1086000292055
6.1086000292055
6.1086000292055
6.1086000292055
6.1086000292055
6.1086000292055
6.1086000292055
6.1086000292055
6.1086000292055
6.1086000292055
6.1086000292055
6.1086000292055
6.1086000292055
6.1086000292055
6.1086000292055
6.1086000292055
6.1086000292055
6.1086000292055
6.1086000292055
6.1086000292055
6.1086000292055
6.1086000292055
6.1086000292055
6.1086000292055
6.1086000292055
6.1086000292055
6.1086000292055
6.1086000292055
6.1086000292055
6.1086000292055
6.1086000292055
6.1086000292055
6.1086000292055
6.1086000292055
6.1086000292055
6.1086000292055
6.1086000292055
6.1086000292055
6.1086000292055
6.1086000292055
6.1086000292055
6.1086000292055
6.1086000292055
6.1086000292055
6.1086000292055
6.1086000292055
6.1086000292055
6.1086000292055
6.1086000292055
6.1086000292055
6.1086000292055
6.1086000292055
6.1086000292055
6.1086000292055
6.1086000292055
6.1086000292055
6.1086000292055
6.1086000292055
6.1086000292055
6.1086000292055
6.1086000292055
6.1086000292055
6.1086000292055
6.1086000292055
6.1086000292055
6.1086000292055
6.1086000292055
6.1086000292055
6.1086000292055
6.1086000292055
6.1086000292055
6.1086000292055
6.1086000292055
6.1086000292055
6.1086000292055
6.1086000292055
6.1086000292055
6.1086000292055
6.1086000292055
6.1086000292055
6.1086000292055
6.1086000292055
6.1086000292055
6.1086000292055
6.1086000292055
6.1086000292055
6.1086000292055
6.1086000292055
6.1086000292055
6.1086000292055
6.1086000292055
6.1086000292055
6.1086000292055
6.1086000292055
6.1086000292055
6.1086000292055
6.1086000292055
6.1086000292055
6.1086000292055
6.1086000292055
6.1086000292055
6.108600029205503
6.1086000292053315
6.108600029215106
6.10860002873556
6.108600048634828
6.108599355595318
6.108619654389617
6.10812583748022
6.117548615881647
5.999827757684894
2.830588228472004
3.5489771775666643
6.55653947492142
6.061971603173582
5.992863330801446
6.005025984301914
6.008261469828147
6.0081040368950935
6.008049492967609
6.008052476465291
6.008052949572837
6.008052904787231
6.008052903360051
6.0080529037026675
6.008052903693391
6.00805290369231
6.008052903692399
6.008052903692398
6.008052903692398
6.0080529036923975
6.008052903692398
6.008052903692398
6.0080529036923975
6.008052903692398
6.0080529036923975
6.0080529036923975
6.008052903692398
6.008052903692398
6.0080529036923975
6.008052903692398
6.008052903692398
6.0080529036923975
6.008052903692398
6.008052903692398
6.008052903692398
6.008052903692398
6.008052903692398
6.008052903692398
6.008052903692398
6.008052903692398
6.008052903692398
6.0080529036923975
6.008052903692398
6.0080529036923975
6.008052903692398
6.0080529036923975
6.008052903692398
6.0080529036923975
6.0080529036923975
6.008052903692398
6.008052903692398
6.008052903692398
6.0080529036923975
6.008052903692398
6.008052903692398
6.0080529036923975
6.008052903692398
6.008052903692398
6.008052903692398
6.0080529036923975
6.008052903692398
6.008052903692398
6.0080529036923975
6.008052903692398
6.008052903692398
6.008052903692398
6.008052903692398
6.008052903692398
6.008052903692398
6.0080529036923975
6.008052903692398
6.008052903692398
6.008052903692398
6.0080529036923975
6.008052903692398
6.008052903692398
6.008052903692398
6.008052903692398
6.008052903692398
6.008052903692398
6.008052903692398
6.008052903692398
6.008052903692398
6.0080529036923975
6.008052903692398
6.0080529036923975
6.008052903692398
6.008052903692398
6.008052903692398
6.0080529036923975
6.008052903692398
6.008052903692398
6.0080529036923975
6.008052903692398
6.0080529036923975
6.008052903692398
6.008052903692398
6.0080529036923975
6.008052903692398
6.0080529036923975
6.008052903692398
6.008052903692398
6.008052903692398
6.008052903692398
6.0080529036923975
6.008052903692398
6.0080529036923975
6.008052903692398
6.008052903692398
6.008052903692398
6.0080529036923975
6.0080529036923975
6.008052903692398
6.008052903692398
6.008052903692398
6.0080529036923975
6.008052903692398
6.008052903692398
6.0080529036923975
6.008052903692402
6.008052903692208
6.008052903703192
6.008052903167131
6.00805292529197
6.008052159269338
6.008074361208698
6.0075403144156345
6.0174778964552
5.896428661732253
2.774237348304107
3.5501356892835414
6.556735597121989
6.05119200875836
5.979578312225022
5.9924115741602515
5.996016115971923
5.995807802322997
5.995721935631158
5.995724725680442
5.995725780761471
5.995725727621033
5.995725720623137
5.995725721268116
5.995725721281727
5.995725721277867
5.995725721277988
5.995725721277997
5.995725721277996
5.995725721277996
5.995725721277996
5.995725721277996
5.995725721277996
5.995725721277996
5.995725721277996
5.995725721277996
5.995725721277996
5.995725721277996
5.995725721277996
5.995725721277996
5.995725721277996
5.995725721277996
5.995725721277996
5.995725721277996
5.995725721277996
5.995725721277996
5.995725721277996
5.995725721277996
5.995725721277996
5.995725721277996
5.995725721277996
5.995725721277996
5.995725721277996
5.995725721277996
5.995725721277996
5.995725721277996
5.995725721277996
5.995725721277996
5.995725721277996
5.995725721277996
5.995725721277996
5.995725721277996
5.995725721277996
5.995725721277996
5.995725721277996
5.995725721277996
5.995725721277996
5.995725721277996
5.995725721277996
5.995725721277996
5.995725721277996
5.995725721277996
5.995725721277996
5.995725721277996
5.995725721277996
5.995725721277996
5.995725721277996
5.995725721277996
5.995725721277996
5.995725721277996
5.995725721277996
5.995725721277996
5.995725721277996
5.995725721277996
5.995725721277996
5.995725721277996
5.995725721277996
5.995725721277996
5.995725721277996
5.995725721277996
5.995725721277996
5.995725721277996
5.995725721277996
5.995725721277996
5.995725721277996
5.995725721277996
5.995725721277996
5.995725721277996
5.995725721277996
5.995725721277996
5.995725721277996
5.995725721277996
5.995725721277996
5.995725721277996
5.995725721277996
5.995725721277996
5.995725721277996
5.995725721277996
5.995725721277996
5.995725721277996
5.995725721277996
5.995725721277996
5.995725721277996
5.995725721277996
5.995725721277996
5.995725721277996
5.995725721277996
5.995725721277996
5.995725721277996
5.995725721277996
5.995725721277996
5.995725721277996
5.995725721277996
5.995725721277996
5.995725721277996
5.995725721277996
5.995725721277996
5.995725721277996
5.995725721277996
5.995725721277999
5.9957257212778075
5.995725721288718
5.995725720756178
5.995725742746241
5.995724980954579
5.9957471017989405
5.995214088478906
6.0051811635512875
5.883838762481123
2.762219901862622
3.550134320623771
6.557250955005128
6.053473161598291
5.983056919516539
5.996456628946836
6.0001746110422545
5.999950624544754
5.999856460826156
5.999859991457217
5.9998615066047485
5.999861454130907
5.999861440029576
5.999861440816343
5.999861440886143
5.999861440879008
5.9998614408789575
5.999861440878989
5.999861440878988
5.999861440878988
5.999861440878988
5.999861440878988
5.999861440878988
5.999861440878988
5.999861440878988
5.999861440878988
5.999861440878988
5.999861440878988
5.999861440878988
5.999861440878988
5.999861440878988
5.999861440878988
5.999861440878988
5.999861440878988
5.999861440878988
5.999861440878988
5.999861440878988
5.999861440878988
5.999861440878988
5.999861440878988
5.999861440878988
5.999861440878988
5.999861440878988
5.999861440878988
5.999861440878988
5.999861440878988
5.999861440878988
5.999861440878988
5.999861440878988
5.999861440878988
5.999861440878988
5.999861440878988
5.999861440878988
5.999861440878988
5.999861440878988
5.999861440878988
5.999861440878988
5.999861440878988
5.999861440878988
5.999861440878988
5.999861440878988
5.999861440878988
5.999861440878988
5.999861440878988
5.999861440878988
5.999861440878988
5.999861440878988
5.999861440878988
5.999861440878988
5.999861440878988
5.999861440878988
5.999861440878988
5.999861440878988
5.999861440878988
5.999861440878988
5.999861440878988
5.999861440878988
5.999861440878988
5.999861440878988
5.999861440878988
5.999861440878988
5.999861440878988
5.999861440878988
5.999861440878988
5.999861440878988
5.999861440878988
5.999861440878988
5.999861440878988
5.999861440878988
5.999861440878988
5.999861440878988
5.999861440878988
5.999861440878988
5.999861440878988
5.999861440878988
5.999861440878988
5.999861440878988
5.999861440878988
5.999861440878988
5.999861440878988
5.999861440878988
5.999861440878988
5.999861440878988
5.999861440878988
5.999861440878988
5.999861440878988
5.999861440878988
5.999861440878988
5.999861440878988
5.999861440878988
5.999861440878988
5.999861440878988
5.999861440878988
5.999861440878988
5.999861440878988
5.999861440878988
5.999861440878988
5.999861440878988
5.999861440878988
5.999861440878991
5.999861440878799
5.999861440889703
5.999861440357415
5.999861462338018
5.999860700752448
5.999882817714749
5.999349696888627
6.0093154571026925
5.8880201923164535
2.7653472057320574
3.550132246117328
6.557232957892975
6.0534854333963235
5.983226315928773
5.996677651701334
6.000382029159551
6.0001456515656795
6.000049235519383
6.000053089137507
6.0000547320472934
6.000054668691179
6.000054649328725
6.000054650168574
6.000054650306151
6.000054650297016
6.000054650296532
6.000054650296593
6.000054650296592
6.000054650296592
6.000054650296592
6.000054650296592
6.000054650296592
6.000054650296592
6.000054650296592
6.000054650296592
6.000054650296592
6.000054650296592
6.000054650296592
6.000054650296592
6.000054650296592
6.000054650296592
6.000054650296592
6.000054650296592
6.000054650296592
6.000054650296592
6.000054650296592
6.000054650296592
6.000054650296592
6.000054650296592
6.000054650296592
6.000054650296592
6.000054650296592
6.000054650296592
6.000054650296592
6.000054650296592
6.000054650296592
6.000054650296592
6.000054650296592
6.000054650296592
6.000054650296592
6.000054650296592
6.000054650296592
6.000054650296592
6.000054650296592
6.000054650296592
6.000054650296592
6.000054650296592
6.000054650296592
6.000054650296592
6.000054650296592
6.000054650296592
6.000054650296592
6.000054650296592
6.000054650296592
6.000054650296592
6.000054650296592
6.000054650296592
6.000054650296592
6.000054650296592
6.000054650296592
6.000054650296592
6.000054650296592
6.000054650296592
6.000054650296592
6.000054650296592
6.000054650296592
6.000054650296592
6.000054650296592
6.000054650296592
6.000054650296592
6.000054650296592
6.000054650296592
6.000054650296592
6.000054650296592
6.000054650296592
6.000054650296592
6.000054650296592
6.000054650296592
6.000054650296592
6.000054650296592
6.000054650296592
6.000054650296592
6.000054650296592
6.000054650296592
6.000054650296592
6.000054650296592
6.000054650296592
6.000054650296592
6.000054650296592
6.000054650296592
6.000054650296592
6.000054650296592
6.000054650296592
6.000054650296592
6.000054650296592
6.000054650296592
6.000054650296592
6.000054650296592
6.000054650296592
6.000054650296592
6.000054650296592
6.000054650296592
6.000054650296592
6.000054650296592
6.000054650296592
6.000054650296592
6.000054650296592
6.000054650296592
6.000054650296595
6.000054650296403
6.000054650307308
6.000054649775034
6.000054671755312
6.00005391017785
6.0000760277960135
5.999542910808533
6.009508295234772
5.888219697076331
2.76559770717897
3.550132279303195
6.557232140064183
6.053477498569957
5.983198483066516
5.996635117135606
6.0003310191770876
6.000092355203978
5.9999960682127025
6.000000129567333
6.000001803079995
6.000001734394779
6.00000171355818
6.000001714540468
6.000001714726228
6.000001714715937
6.0000017147149345
6.000001714715017
6.000001714715019
6.000001714715018
6.000001714715018
6.000001714715018
6.000001714715018
6.000001714715018
6.000001714715018
6.000001714715018
6.000001714715018
6.000001714715018
6.000001714715018
6.000001714715018
6.000001714715018
6.000001714715018
6.000001714715018
6.000001714715018
6.000001714715018
6.000001714715018
6.000001714715018
6.000001714715018
6.000001714715018
6.000001714715018
6.000001714715018
6.000001714715018
6.000001714715018
6.000001714715018
6.000001714715018
6.000001714715018
6.000001714715018
6.000001714715018
6.000001714715018
6.000001714715018
6.000001714715018
6.000001714715018
6.000001714715018
6.000001714715018
6.000001714715018
6.000001714715018
6.000001714715018
6.000001714715018
6.000001714715018
6.000001714715018
6.000001714715018
6.000001714715018
6.000001714715018
6.000001714715018
6.000001714715018
6.000001714715018
6.000001714715018
6.000001714715018
6.000001714715018
6.000001714715018
6.000001714715018
6.000001714715018
6.000001714715018
6.000001714715018
6.000001714715018
6.000001714715018
6.000001714715018
6.000001714715018
6.000001714715018
6.000001714715018
6.000001714715018
6.000001714715018
6.000001714715018
6.000001714715018
6.000001714715018
6.000001714715018
6.000001714715018
6.000001714715018
6.000001714715018
6.000001714715018
6.000001714715018
6.000001714715018
6.000001714715018
6.000001714715018
6.000001714715018
6.000001714715018
6.000001714715018
6.000001714715018
6.000001714715018
6.000001714715018
6.000001714715018
6.000001714715018
6.000001714715018
6.000001714715018
6.000001714715018
6.000001714715018
6.000001714715018
6.000001714715018
6.000001714715018
6.000001714715018
6.000001714715018
6.000001714715018
6.000001714715018
6.000001714715018
6.000001714715018
6.000001714715018
6.000001714715018
6.000001714715018
6.000001714715018
6.0000017147150215
6.000001714714831
6.000001714725735
6.000001714193462
6.000001736173753
6.000000974591968
6.000023092262394
5.999489974928724
6.009455389449106
5.888165917899313
2.765553817909331
3.5501322830587227
6.557232200862463
6.053477678642988
5.983198211488662
5.996633205314533
6.000328461309034
6.000089913769496
5.99999379184698
5.999997896389463
5.999999568122041
5.999999496704811
5.999999475568927
5.999999476619334
5.999999476818186
5.999999476806362
5.999999476805004
5.9999994768051
5.999999476805106
5.9999994768051055
5.9999994768051055
5.9999994768051055
5.9999994768051055
5.9999994768051055
5.9999994768051055
5.9999994768051055
5.9999994768051055
5.9999994768051055
5.9999994768051055
5.9999994768051055
5.9999994768051055
5.9999994768051055
5.9999994768051055
5.9999994768051055
5.9999994768051055
5.9999994768051055
5.9999994768051055
5.9999994768051055
5.9999994768051055
5.9999994768051055
5.9999994768051055
5.9999994768051055
5.9999994768051055
5.9999994768051055
5.9999994768051055
5.9999994768051055
5.9999994768051055
5.9999994768051055
5.9999994768051055
5.9999994768051055
5.9999994768051055
5.9999994768051055
5.9999994768051055
5.9999994768051055
5.9999994768051055
5.9999994768051055
5.9999994768051055
5.9999994768051055
5.9999994768051055
5.9999994768051055
5.9999994768051055
5.9999994768051055
5.9999994768051055
5.9999994768051055
5.9999994768051055
5.9999994768051055
5.9999994768051055
5.9999994768051055
5.9999994768051055
5.9999994768051055
5.9999994768051055
5.9999994768051055
5.9999994768051055
5.9999994768051055
5.9999994768051055
5.9999994768051055
5.9999994768051055
5.9999994768051055
5.9999994768051055
5.9999994768051055
5.9999994768051055
5.9999994768051055
5.9999994768051055
5.9999994768051055
5.9999994768051055
5.9999994768051055
5.9999994768051055
5.9999994768051055
5.9999994768051055
5.9999994768051055
5.9999994768051055
5.9999994768051055
5.9999994768051055
5.9999994768051055
5.9999994768051055
5.9999994768051055
5.9999994768051055
5.9999994768051055
5.9999994768051055
5.9999994768051055
5.9999994768051055
5.9999994768051055
5.9999994768051055
5.9999994768051055
5.9999994768051055
5.9999994768051055
5.9999994768051055
5.9999994768051055
5.9999994768051055
5.9999994768051055
5.9999994768051055
5.9999994768051055
5.9999994768051055
5.9999994768051055
5.9999994768051055
5.9999994768051055
5.9999994768051055
5.9999994768051055
5.9999994768051055
5.999999476805108
5.999999476804917
5.999999476815821
5.999999476283545
5.999999498263845
5.999998736682038
6.000020854350495
5.999487736936476
6.009453154392245
5.888163629436241
2.765550727488331
3.550132282892906
6.557232200499548
6.053477690458799
5.983198294248627
5.996633463642182
6.000328860765974
6.000090400940544
5.99999430655592
5.999998411284464
6.000000080602348
6.000000008626512
5.9999999875218215
5.999999988600984
5.999999988801947
5.99999998878944
5.999999988787991
5.999999988788101
5.999999988788108
5.999999988788108
5.999999988788108
5.999999988788108
5.999999988788108
5.999999988788108
5.999999988788108
5.999999988788108
5.999999988788108
5.999999988788108
5.999999988788108
5.999999988788108
5.999999988788108
5.999999988788108
5.999999988788108
5.999999988788108
5.999999988788108
5.999999988788108
5.999999988788108
5.999999988788108
5.999999988788108
5.999999988788108
5.999999988788108
5.999999988788108
5.999999988788108
5.999999988788108
5.999999988788108
5.999999988788108
5.999999988788108
5.999999988788108
5.999999988788108
5.999999988788108
5.999999988788108
5.999999988788108
5.999999988788108
5.999999988788108
5.999999988788108
5.999999988788108
5.999999988788108
5.999999988788108
5.999999988788108
5.999999988788108
5.999999988788108
5.999999988788108
5.999999988788108
5.999999988788108
5.999999988788108
5.999999988788108
5.999999988788108
5.999999988788108
5.999999988788108
5.999999988788108
5.999999988788108
5.999999988788108
5.999999988788108